<?xml version="1.0" encoding="UTF-8"?>

<!-- generated on 6/3/2016 3:41:14 PM by SUMO gui Version 0.24.0
<?xml version="1.0" encoding="UTF-8"?>

<configuration xmlns:xsi="http://www.w3.org/2001/XMLSchema-instance" xsi:noNamespaceSchemaLocation="http://sumo.dlr.de/xsd/sumo-gui.exeConfiguration.xsd">

    <input>
        <net-file value="C:\Users\Xavier\Dropbox\Courses\Fall\ME%20199%20-%20Final%20Year%20Project\Sumo%20Projects\Huntington%20Colorado\Version%207\huntingtonColorado.net.xml"/>
        <route-files value="C:\Users\Xavier\Dropbox\Courses\Fall\ME%20199%20-%20Final%20Year%20Project\Sumo%20Projects\Huntington%20Colorado\Version%207\huntingtonColorado.rou.xml"/>
    </input>

    <output>
        <tripinfo-output value="C:\Users\Xavier\Dropbox\Courses\Fall\ME%20199%20-%20Final%20Year%20Project\Sumo%20Projects\Huntington%20Colorado\Version%207\myTripInfo.xml"/>
        <save-state.prefix value="C:\Users\Xavier\Dropbox\Courses\Fall\ME%20199%20-%20Final%20Year%20Project\Sumo%20Projects\Huntington%20Colorado\Version%207\state"/>
    </output>

    <time>
        <begin value="0"/>
    </time>

    <processing>
        <time-to-teleport value="-1"/>
    </processing>

    <emissions>
        <phemlight-path value="C:\Users\Xavier\Dropbox\Courses\Fall\ME%20199%20-%20Final%20Year%20Project\Sumo%20Projects\Huntington%20Colorado\Version%207\./PHEMlight/"/>
    </emissions>

</configuration>
-->

<tripinfos xmlns:xsi="http://www.w3.org/2001/XMLSchema-instance" xsi:noNamespaceSchemaLocation="http://sumo.dlr.de/xsd/tripinfo_file.xsd">
    <tripinfo id="type0.2" depart="1.00" departLane="2to14_0" departPos="5.10" departSpeed="0.00" departDelay="0.28" arrival="37.00" arrivalLane="17to3_0" arrivalPos="174.91" arrivalSpeed="13.29" duration="36.00" routeLength="418.83" waitSteps="0" timeLoss="5.69" rerouteNo="0" devices="tripinfo_type0.2" vType="DEFAULT_VEHTYPE" vaporized=""/>
    <tripinfo id="type0.6" depart="6.00" departLane="2to14_0" departPos="5.10" departSpeed="0.00" departDelay="3.84" arrival="43.00" arrivalLane="17to3_0" arrivalPos="174.91" arrivalSpeed="13.11" duration="37.00" routeLength="418.83" waitSteps="0" timeLoss="6.85" rerouteNo="0" devices="tripinfo_type0.6" vType="DEFAULT_VEHTYPE" vaporized=""/>
    <tripinfo id="type4.1" depart="1.00" departLane="7to6_2" departPos="5.10" departSpeed="0.00" departDelay="0.64" arrival="59.00" arrivalLane="14to2_1" arrivalPos="212.74" arrivalSpeed="13.32" duration="58.00" routeLength="737.82" waitSteps="0" timeLoss="5.05" rerouteNo="0" devices="tripinfo_type4.1" vType="DEFAULT_VEHTYPE" vaporized=""/>
    <tripinfo id="type4.0" depart="0.00" departLane="7to6_1" departPos="5.10" departSpeed="0.00" departDelay="0.00" arrival="59.00" arrivalLane="14to2_0" arrivalPos="212.74" arrivalSpeed="12.93" duration="59.00" routeLength="737.82" waitSteps="0" timeLoss="5.62" rerouteNo="0" devices="tripinfo_type4.0" vType="DEFAULT_VEHTYPE" vaporized=""/>
    <tripinfo id="type0.0" depart="0.00" departLane="2to14_1" departPos="5.10" departSpeed="0.00" departDelay="0.00" arrival="59.00" arrivalLane="6to7_0" arrivalPos="393.59" arrivalSpeed="12.71" duration="59.00" routeLength="731.97" waitSteps="0" timeLoss="5.82" rerouteNo="0" devices="tripinfo_type0.0" vType="DEFAULT_VEHTYPE" vaporized=""/>
    <tripinfo id="type0.1" depart="0.00" departLane="2to14_2" departPos="5.10" departSpeed="0.00" departDelay="-0.36" arrival="59.00" arrivalLane="6to7_1" arrivalPos="393.59" arrivalSpeed="12.88" duration="59.00" routeLength="731.97" waitSteps="0" timeLoss="5.80" rerouteNo="0" devices="tripinfo_type0.1" vType="DEFAULT_VEHTYPE" vaporized=""/>
    <tripinfo id="type4.3" depart="3.00" departLane="7to6_1" departPos="5.10" departSpeed="0.00" departDelay="1.92" arrival="61.00" arrivalLane="14to2_0" arrivalPos="212.74" arrivalSpeed="12.86" duration="58.00" routeLength="737.82" waitSteps="0" timeLoss="5.35" rerouteNo="0" devices="tripinfo_type4.3" vType="DEFAULT_VEHTYPE" vaporized=""/>
    <tripinfo id="type0.3" depart="3.00" departLane="2to14_1" departPos="5.10" departSpeed="0.00" departDelay="1.92" arrival="61.00" arrivalLane="6to7_0" arrivalPos="393.59" arrivalSpeed="13.06" duration="58.00" routeLength="731.97" waitSteps="0" timeLoss="4.77" rerouteNo="0" devices="tripinfo_type0.3" vType="DEFAULT_VEHTYPE" vaporized=""/>
    <tripinfo id="type0.4" depart="3.00" departLane="2to14_2" departPos="5.10" departSpeed="0.00" departDelay="1.56" arrival="61.00" arrivalLane="6to7_1" arrivalPos="393.59" arrivalSpeed="12.88" duration="58.00" routeLength="731.97" waitSteps="0" timeLoss="5.33" rerouteNo="0" devices="tripinfo_type0.4" vType="DEFAULT_VEHTYPE" vaporized=""/>
    <tripinfo id="type4.4" depart="4.00" departLane="7to6_2" departPos="5.10" departSpeed="0.00" departDelay="2.56" arrival="63.00" arrivalLane="14to2_1" arrivalPos="212.74" arrivalSpeed="13.68" duration="59.00" routeLength="737.82" waitSteps="0" timeLoss="5.30" rerouteNo="0" devices="tripinfo_type4.4" vType="DEFAULT_VEHTYPE" vaporized=""/>
    <tripinfo id="type0.8" depart="6.00" departLane="2to14_2" departPos="5.10" departSpeed="0.00" departDelay="3.12" arrival="64.00" arrivalLane="6to7_1" arrivalPos="393.59" arrivalSpeed="13.94" duration="58.00" routeLength="731.97" waitSteps="0" timeLoss="5.20" rerouteNo="0" devices="tripinfo_type0.8" vType="DEFAULT_VEHTYPE" vaporized=""/>
    <tripinfo id="type0.5" depart="6.00" departLane="2to14_1" departPos="5.10" departSpeed="0.00" departDelay="4.20" arrival="65.00" arrivalLane="6to7_0" arrivalPos="393.59" arrivalSpeed="13.19" duration="59.00" routeLength="731.97" waitSteps="0" timeLoss="5.75" rerouteNo="0" devices="tripinfo_type0.5" vType="DEFAULT_VEHTYPE" vaporized=""/>
    <tripinfo id="type0.25" depart="30.00" departLane="2to14_0" departPos="5.10" departSpeed="0.00" departDelay="21.00" arrival="66.00" arrivalLane="17to3_0" arrivalPos="174.91" arrivalSpeed="13.35" duration="36.00" routeLength="418.83" waitSteps="0" timeLoss="5.92" rerouteNo="0" devices="tripinfo_type0.25" vType="DEFAULT_VEHTYPE" vaporized=""/>
    <tripinfo id="type4.8" depart="7.00" departLane="7to6_1" departPos="5.10" departSpeed="0.00" departDelay="4.12" arrival="66.00" arrivalLane="14to2_0" arrivalPos="212.74" arrivalSpeed="13.62" duration="59.00" routeLength="737.82" waitSteps="0" timeLoss="5.75" rerouteNo="0" devices="tripinfo_type4.8" vType="DEFAULT_VEHTYPE" vaporized=""/>
    <tripinfo id="type0.9" depart="9.00" departLane="2to14_1" departPos="5.10" departSpeed="0.00" departDelay="5.76" arrival="66.00" arrivalLane="6to7_0" arrivalPos="393.59" arrivalSpeed="13.56" duration="57.00" routeLength="731.97" waitSteps="0" timeLoss="4.63" rerouteNo="0" devices="tripinfo_type0.9" vType="DEFAULT_VEHTYPE" vaporized=""/>
    <tripinfo id="type4.2" depart="1.00" departLane="7to6_0" departPos="5.10" departSpeed="0.00" departDelay="0.28" arrival="67.00" arrivalLane="4to5_0" arrivalPos="218.85" arrivalSpeed="13.13" duration="66.00" routeLength="826.72" waitSteps="0" timeLoss="6.73" rerouteNo="0" devices="tripinfo_type4.2" vType="DEFAULT_VEHTYPE" vaporized=""/>
    <tripinfo id="type0.10" depart="9.00" departLane="2to14_2" departPos="5.10" departSpeed="0.00" departDelay="5.40" arrival="67.00" arrivalLane="6to7_0" arrivalPos="393.59" arrivalSpeed="13.52" duration="58.00" routeLength="731.97" waitSteps="0" timeLoss="4.82" rerouteNo="0" devices="tripinfo_type0.10" vType="DEFAULT_VEHTYPE" vaporized=""/>
    <tripinfo id="type0.26" depart="33.00" departLane="2to14_0" departPos="5.10" departSpeed="0.00" departDelay="23.64" arrival="69.00" arrivalLane="17to3_0" arrivalPos="174.91" arrivalSpeed="13.06" duration="36.00" routeLength="418.83" waitSteps="0" timeLoss="5.77" rerouteNo="0" devices="tripinfo_type0.26" vType="DEFAULT_VEHTYPE" vaporized=""/>
    <tripinfo id="type4.5" depart="4.00" departLane="7to6_0" departPos="5.10" departSpeed="0.00" departDelay="2.20" arrival="69.00" arrivalLane="4to5_0" arrivalPos="218.85" arrivalSpeed="13.29" duration="65.00" routeLength="826.72" waitSteps="0" timeLoss="5.72" rerouteNo="0" devices="tripinfo_type4.5" vType="DEFAULT_VEHTYPE" vaporized=""/>
    <tripinfo id="type4.9" depart="10.00" departLane="7to6_1" departPos="5.10" departSpeed="0.00" departDelay="6.76" arrival="69.00" arrivalLane="14to2_0" arrivalPos="212.74" arrivalSpeed="12.82" duration="59.00" routeLength="737.82" waitSteps="0" timeLoss="5.66" rerouteNo="0" devices="tripinfo_type4.9" vType="DEFAULT_VEHTYPE" vaporized=""/>
    <tripinfo id="type4.10" depart="11.00" departLane="7to6_2" departPos="5.10" departSpeed="0.00" departDelay="7.40" arrival="70.00" arrivalLane="14to2_1" arrivalPos="212.74" arrivalSpeed="12.92" duration="59.00" routeLength="737.82" waitSteps="0" timeLoss="5.80" rerouteNo="0" devices="tripinfo_type4.10" vType="DEFAULT_VEHTYPE" vaporized=""/>
    <tripinfo id="type0.11" depart="12.00" departLane="2to14_1" departPos="5.10" departSpeed="0.00" departDelay="8.04" arrival="70.00" arrivalLane="6to7_0" arrivalPos="393.59" arrivalSpeed="12.90" duration="58.00" routeLength="731.97" waitSteps="0" timeLoss="5.14" rerouteNo="0" devices="tripinfo_type0.11" vType="DEFAULT_VEHTYPE" vaporized=""/>
    <tripinfo id="type0.12" depart="12.00" departLane="2to14_2" departPos="5.10" departSpeed="0.00" departDelay="7.68" arrival="70.00" arrivalLane="6to7_1" arrivalPos="393.59" arrivalSpeed="13.11" duration="58.00" routeLength="731.97" waitSteps="0" timeLoss="5.49" rerouteNo="0" devices="tripinfo_type0.12" vType="DEFAULT_VEHTYPE" vaporized=""/>
    <tripinfo id="type0.31" depart="36.00" departLane="2to14_0" departPos="5.10" departSpeed="0.00" departDelay="24.84" arrival="72.00" arrivalLane="17to3_0" arrivalPos="174.91" arrivalSpeed="13.85" duration="36.00" routeLength="418.83" waitSteps="0" timeLoss="5.91" rerouteNo="0" devices="tripinfo_type0.31" vType="DEFAULT_VEHTYPE" vaporized=""/>
    <tripinfo id="type4.12" depart="14.00" departLane="7to6_1" departPos="5.10" departSpeed="0.00" departDelay="9.68" arrival="72.00" arrivalLane="14to2_0" arrivalPos="212.74" arrivalSpeed="12.95" duration="58.00" routeLength="737.82" waitSteps="0" timeLoss="4.79" rerouteNo="0" devices="tripinfo_type4.12" vType="DEFAULT_VEHTYPE" vaporized=""/>
    <tripinfo id="type4.7" depart="7.00" departLane="7to6_0" departPos="5.10" departSpeed="0.00" departDelay="4.48" arrival="73.00" arrivalLane="4to5_0" arrivalPos="218.85" arrivalSpeed="13.25" duration="66.00" routeLength="826.72" waitSteps="0" timeLoss="6.51" rerouteNo="0" devices="tripinfo_type4.7" vType="DEFAULT_VEHTYPE" vaporized=""/>
    <tripinfo id="type4.11" depart="14.00" departLane="7to6_2" departPos="5.10" departSpeed="0.00" departDelay="10.04" arrival="73.00" arrivalLane="14to2_1" arrivalPos="212.74" arrivalSpeed="13.39" duration="59.00" routeLength="737.82" waitSteps="0" timeLoss="5.48" rerouteNo="0" devices="tripinfo_type4.11" vType="DEFAULT_VEHTYPE" vaporized=""/>
    <tripinfo id="type0.13" depart="15.00" departLane="2to14_1" departPos="5.10" departSpeed="0.00" departDelay="10.32" arrival="73.00" arrivalLane="6to7_0" arrivalPos="393.59" arrivalSpeed="13.34" duration="58.00" routeLength="731.97" waitSteps="0" timeLoss="5.57" rerouteNo="0" devices="tripinfo_type0.13" vType="DEFAULT_VEHTYPE" vaporized=""/>
    <tripinfo id="type0.14" depart="15.00" departLane="2to14_2" departPos="5.10" departSpeed="0.00" departDelay="9.96" arrival="73.00" arrivalLane="6to7_1" arrivalPos="393.59" arrivalSpeed="13.75" duration="58.00" routeLength="731.97" waitSteps="0" timeLoss="5.14" rerouteNo="0" devices="tripinfo_type0.14" vType="DEFAULT_VEHTYPE" vaporized=""/>
    <tripinfo id="type0.32" depart="39.00" departLane="2to14_0" departPos="5.10" departSpeed="0.00" departDelay="27.48" arrival="75.00" arrivalLane="17to3_0" arrivalPos="174.91" arrivalSpeed="13.86" duration="36.00" routeLength="418.83" waitSteps="0" timeLoss="5.80" rerouteNo="0" devices="tripinfo_type0.32" vType="DEFAULT_VEHTYPE" vaporized=""/>
    <tripinfo id="type4.13" depart="17.00" departLane="7to6_2" departPos="5.10" departSpeed="0.00" departDelay="12.32" arrival="76.00" arrivalLane="14to2_0" arrivalPos="212.74" arrivalSpeed="13.30" duration="59.00" routeLength="737.82" waitSteps="0" timeLoss="5.55" rerouteNo="0" devices="tripinfo_type4.13" vType="DEFAULT_VEHTYPE" vaporized=""/>
    <tripinfo id="type0.15" depart="18.00" departLane="2to14_1" departPos="5.10" departSpeed="0.00" departDelay="12.60" arrival="77.00" arrivalLane="6to7_0" arrivalPos="393.59" arrivalSpeed="13.94" duration="59.00" routeLength="731.97" waitSteps="0" timeLoss="5.95" rerouteNo="0" devices="tripinfo_type0.15" vType="DEFAULT_VEHTYPE" vaporized=""/>
    <tripinfo id="type0.16" depart="18.00" departLane="2to14_2" departPos="5.10" departSpeed="0.00" departDelay="12.24" arrival="77.00" arrivalLane="6to7_1" arrivalPos="393.59" arrivalSpeed="13.51" duration="59.00" routeLength="731.97" waitSteps="0" timeLoss="5.76" rerouteNo="0" devices="tripinfo_type0.16" vType="DEFAULT_VEHTYPE" vaporized=""/>
    <tripinfo id="type0.37" depart="42.00" departLane="2to14_0" departPos="5.10" departSpeed="0.00" departDelay="28.68" arrival="78.00" arrivalLane="17to3_0" arrivalPos="174.91" arrivalSpeed="12.80" duration="36.00" routeLength="418.83" waitSteps="0" timeLoss="5.93" rerouteNo="0" devices="tripinfo_type0.37" vType="DEFAULT_VEHTYPE" vaporized=""/>
    <tripinfo id="type4.14" depart="17.00" departLane="7to6_1" departPos="5.10" departSpeed="0.00" departDelay="11.96" arrival="78.00" arrivalLane="14to2_0" arrivalPos="212.74" arrivalSpeed="13.61" duration="61.00" routeLength="737.82" waitSteps="0" timeLoss="7.55" rerouteNo="0" devices="tripinfo_type4.14" vType="DEFAULT_VEHTYPE" vaporized=""/>
    <tripinfo id="type4.15" depart="20.00" departLane="7to6_1" departPos="5.10" departSpeed="0.00" departDelay="14.60" arrival="79.00" arrivalLane="14to2_1" arrivalPos="212.74" arrivalSpeed="13.80" duration="59.00" routeLength="737.82" waitSteps="0" timeLoss="5.41" rerouteNo="0" devices="tripinfo_type4.15" vType="DEFAULT_VEHTYPE" vaporized=""/>
    <tripinfo id="type0.17" depart="21.00" departLane="2to14_1" departPos="5.10" departSpeed="0.00" departDelay="14.88" arrival="79.00" arrivalLane="6to7_0" arrivalPos="393.59" arrivalSpeed="13.79" duration="58.00" routeLength="731.97" waitSteps="0" timeLoss="5.52" rerouteNo="0" devices="tripinfo_type0.17" vType="DEFAULT_VEHTYPE" vaporized=""/>
    <tripinfo id="type0.18" depart="21.00" departLane="2to14_2" departPos="5.10" departSpeed="0.00" departDelay="14.52" arrival="79.00" arrivalLane="6to7_1" arrivalPos="393.59" arrivalSpeed="13.59" duration="58.00" routeLength="731.97" waitSteps="0" timeLoss="5.46" rerouteNo="0" devices="tripinfo_type0.18" vType="DEFAULT_VEHTYPE" vaporized=""/>
    <tripinfo id="type4.16" depart="23.00" departLane="7to6_1" departPos="5.10" departSpeed="0.00" departDelay="17.24" arrival="81.00" arrivalLane="14to2_0" arrivalPos="212.74" arrivalSpeed="13.25" duration="58.00" routeLength="737.82" waitSteps="0" timeLoss="4.78" rerouteNo="0" devices="tripinfo_type4.16" vType="DEFAULT_VEHTYPE" vaporized=""/>
    <tripinfo id="type0.19" depart="24.00" departLane="2to14_1" departPos="5.10" departSpeed="0.00" departDelay="17.16" arrival="82.00" arrivalLane="6to7_0" arrivalPos="393.59" arrivalSpeed="13.54" duration="58.00" routeLength="731.97" waitSteps="0" timeLoss="5.66" rerouteNo="0" devices="tripinfo_type0.19" vType="DEFAULT_VEHTYPE" vaporized=""/>
    <tripinfo id="type0.20" depart="24.00" departLane="2to14_2" departPos="5.10" departSpeed="0.00" departDelay="16.80" arrival="82.00" arrivalLane="6to7_1" arrivalPos="393.59" arrivalSpeed="13.35" duration="58.00" routeLength="731.97" waitSteps="0" timeLoss="5.35" rerouteNo="0" devices="tripinfo_type0.20" vType="DEFAULT_VEHTYPE" vaporized=""/>
    <tripinfo id="type4.17" depart="25.00" departLane="7to6_2" departPos="5.10" departSpeed="0.00" departDelay="18.88" arrival="83.00" arrivalLane="14to2_0" arrivalPos="212.74" arrivalSpeed="13.26" duration="58.00" routeLength="737.82" waitSteps="0" timeLoss="4.94" rerouteNo="0" devices="tripinfo_type4.17" vType="DEFAULT_VEHTYPE" vaporized=""/>
    <tripinfo id="type0.21" depart="27.00" departLane="2to14_2" departPos="5.10" departSpeed="0.00" departDelay="19.44" arrival="85.00" arrivalLane="6to7_0" arrivalPos="393.59" arrivalSpeed="13.20" duration="58.00" routeLength="731.97" waitSteps="0" timeLoss="4.76" rerouteNo="0" devices="tripinfo_type0.21" vType="DEFAULT_VEHTYPE" vaporized=""/>
    <tripinfo id="type0.22" depart="27.00" departLane="2to14_1" departPos="5.10" departSpeed="0.00" departDelay="19.08" arrival="86.00" arrivalLane="6to7_0" arrivalPos="393.59" arrivalSpeed="13.32" duration="59.00" routeLength="731.97" waitSteps="0" timeLoss="6.55" rerouteNo="0" devices="tripinfo_type0.22" vType="DEFAULT_VEHTYPE" vaporized=""/>
    <tripinfo id="type4.19" depart="28.00" departLane="7to6_2" departPos="5.10" departSpeed="0.00" departDelay="21.16" arrival="87.00" arrivalLane="14to2_0" arrivalPos="212.74" arrivalSpeed="13.09" duration="59.00" routeLength="737.82" waitSteps="0" timeLoss="5.43" rerouteNo="0" devices="tripinfo_type4.19" vType="DEFAULT_VEHTYPE" vaporized=""/>
    <tripinfo id="type0.23" depart="30.00" departLane="2to14_1" departPos="5.10" departSpeed="0.00" departDelay="21.72" arrival="88.00" arrivalLane="6to7_0" arrivalPos="393.59" arrivalSpeed="13.25" duration="58.00" routeLength="731.97" waitSteps="0" timeLoss="5.57" rerouteNo="0" devices="tripinfo_type0.23" vType="DEFAULT_VEHTYPE" vaporized=""/>
    <tripinfo id="type0.44" depart="54.00" departLane="2to14_0" departPos="5.10" departSpeed="0.00" departDelay="38.16" arrival="90.00" arrivalLane="17to3_0" arrivalPos="174.91" arrivalSpeed="13.14" duration="36.00" routeLength="418.83" waitSteps="0" timeLoss="6.02" rerouteNo="0" devices="tripinfo_type0.44" vType="DEFAULT_VEHTYPE" vaporized=""/>
    <tripinfo id="type0.29" depart="33.00" departLane="2to14_1" departPos="5.10" departSpeed="0.00" departDelay="22.56" arrival="91.00" arrivalLane="6to7_0" arrivalPos="393.59" arrivalSpeed="13.02" duration="58.00" routeLength="731.97" waitSteps="0" timeLoss="5.58" rerouteNo="0" devices="tripinfo_type0.29" vType="DEFAULT_VEHTYPE" vaporized=""/>
    <tripinfo id="type0.27" depart="33.00" departLane="2to14_2" departPos="5.10" departSpeed="0.00" departDelay="23.28" arrival="91.00" arrivalLane="6to7_1" arrivalPos="393.59" arrivalSpeed="13.83" duration="58.00" routeLength="731.97" waitSteps="0" timeLoss="5.21" rerouteNo="0" devices="tripinfo_type0.27" vType="DEFAULT_VEHTYPE" vaporized=""/>
    <tripinfo id="type0.30" depart="36.00" departLane="2to14_2" departPos="5.10" departSpeed="0.00" departDelay="25.20" arrival="95.00" arrivalLane="6to7_0" arrivalPos="393.59" arrivalSpeed="13.21" duration="59.00" routeLength="731.97" waitSteps="0" timeLoss="5.81" rerouteNo="0" devices="tripinfo_type0.30" vType="DEFAULT_VEHTYPE" vaporized=""/>
    <tripinfo id="type0.33" depart="39.00" departLane="2to14_1" departPos="5.10" departSpeed="0.00" departDelay="27.12" arrival="97.00" arrivalLane="6to7_0" arrivalPos="393.59" arrivalSpeed="13.38" duration="58.00" routeLength="731.97" waitSteps="0" timeLoss="5.39" rerouteNo="0" devices="tripinfo_type0.33" vType="DEFAULT_VEHTYPE" vaporized=""/>
    <tripinfo id="type0.34" depart="39.00" departLane="2to14_2" departPos="5.10" departSpeed="0.00" departDelay="26.76" arrival="97.00" arrivalLane="6to7_1" arrivalPos="393.59" arrivalSpeed="12.85" duration="58.00" routeLength="731.97" waitSteps="0" timeLoss="5.26" rerouteNo="0" devices="tripinfo_type0.34" vType="DEFAULT_VEHTYPE" vaporized=""/>
    <tripinfo id="type2.17" depart="61.00" departLane="3to17_3" departPos="5.10" departSpeed="0.00" departDelay="-0.20" arrival="100.00" arrivalLane="14to2_0" arrivalPos="212.74" arrivalSpeed="12.87" duration="39.00" routeLength="416.04" waitSteps="0" timeLoss="7.07" rerouteNo="0" devices="tripinfo_type2.17" vType="DEFAULT_VEHTYPE" vaporized=""/>
    <tripinfo id="type0.35" depart="42.00" departLane="2to14_1" departPos="5.10" departSpeed="0.00" departDelay="29.40" arrival="100.00" arrivalLane="6to7_0" arrivalPos="393.59" arrivalSpeed="13.63" duration="58.00" routeLength="731.97" waitSteps="0" timeLoss="5.17" rerouteNo="0" devices="tripinfo_type0.35" vType="DEFAULT_VEHTYPE" vaporized=""/>
    <tripinfo id="type0.36" depart="42.00" departLane="2to14_2" departPos="5.10" departSpeed="0.00" departDelay="29.04" arrival="100.00" arrivalLane="6to7_1" arrivalPos="393.59" arrivalSpeed="13.70" duration="58.00" routeLength="731.97" waitSteps="0" timeLoss="5.45" rerouteNo="0" devices="tripinfo_type0.36" vType="DEFAULT_VEHTYPE" vaporized=""/>
    <tripinfo id="type2.18" depart="64.00" departLane="3to17_3" departPos="5.10" departSpeed="0.00" departDelay="-0.80" arrival="103.00" arrivalLane="14to2_0" arrivalPos="212.74" arrivalSpeed="12.96" duration="39.00" routeLength="416.04" waitSteps="0" timeLoss="6.84" rerouteNo="0" devices="tripinfo_type2.18" vType="DEFAULT_VEHTYPE" vaporized=""/>
    <tripinfo id="type0.38" depart="45.00" departLane="2to14_2" departPos="5.10" departSpeed="0.00" departDelay="31.32" arrival="103.00" arrivalLane="6to7_0" arrivalPos="393.59" arrivalSpeed="12.82" duration="58.00" routeLength="731.97" waitSteps="0" timeLoss="5.59" rerouteNo="0" devices="tripinfo_type0.38" vType="DEFAULT_VEHTYPE" vaporized=""/>
    <tripinfo id="type1.0" depart="0.00" departLane="5to4_1" departPos="5.10" departSpeed="0.00" departDelay="0.00" arrival="106.00" arrivalLane="17to3_0" arrivalPos="174.91" arrivalSpeed="13.81" duration="106.00" routeLength="529.05" waitSteps="54" timeLoss="65.26" rerouteNo="0" devices="tripinfo_type1.0" vType="DEFAULT_VEHTYPE" vaporized=""/>
    <tripinfo id="type0.40" depart="48.00" departLane="2to14_1" departPos="5.10" departSpeed="0.00" departDelay="33.60" arrival="107.00" arrivalLane="6to7_0" arrivalPos="393.59" arrivalSpeed="12.89" duration="59.00" routeLength="731.97" waitSteps="0" timeLoss="6.17" rerouteNo="0" devices="tripinfo_type0.40" vType="DEFAULT_VEHTYPE" vaporized=""/>
    <tripinfo id="type1.1" depart="3.00" departLane="5to4_1" departPos="5.10" departSpeed="0.00" departDelay="-0.60" arrival="108.00" arrivalLane="17to3_1" arrivalPos="174.91" arrivalSpeed="13.65" duration="105.00" routeLength="529.05" waitSteps="53" timeLoss="64.02" rerouteNo="0" devices="tripinfo_type1.1" vType="DEFAULT_VEHTYPE" vaporized=""/>
    <tripinfo id="type1.3" depart="10.00" departLane="5to4_1" departPos="5.10" departSpeed="0.00" departDelay="-0.80" arrival="110.00" arrivalLane="17to3_0" arrivalPos="174.91" arrivalSpeed="13.10" duration="100.00" routeLength="529.05" waitSteps="46" timeLoss="58.97" rerouteNo="0" devices="tripinfo_type1.3" vType="DEFAULT_VEHTYPE" vaporized=""/>
    <tripinfo id="type2.7" depart="25.00" departLane="3to17_0" departPos="5.10" departSpeed="0.00" departDelay="-0.20" arrival="111.00" arrivalLane="6to7_0" arrivalPos="393.59" arrivalSpeed="13.84" duration="86.00" routeLength="689.03" waitSteps="26" timeLoss="36.25" rerouteNo="0" devices="tripinfo_type2.7" vType="DEFAULT_VEHTYPE" vaporized=""/>
    <tripinfo id="type1.4" depart="14.00" departLane="5to4_1" departPos="5.10" departSpeed="0.00" departDelay="-0.40" arrival="112.00" arrivalLane="17to3_0" arrivalPos="174.91" arrivalSpeed="13.87" duration="98.00" routeLength="529.05" waitSteps="44" timeLoss="57.20" rerouteNo="0" devices="tripinfo_type1.4" vType="DEFAULT_VEHTYPE" vaporized=""/>
    <tripinfo id="type2.13" depart="46.00" departLane="3to17_0" departPos="5.10" departSpeed="0.00" departDelay="-0.80" arrival="113.00" arrivalLane="6to7_0" arrivalPos="393.59" arrivalSpeed="13.19" duration="67.00" routeLength="689.03" waitSteps="5" timeLoss="17.20" rerouteNo="0" devices="tripinfo_type2.13" vType="DEFAULT_VEHTYPE" vaporized=""/>
    <tripinfo id="type1.6" depart="21.00" departLane="5to4_1" departPos="5.10" departSpeed="0.00" departDelay="-0.60" arrival="114.00" arrivalLane="17to3_1" arrivalPos="174.91" arrivalSpeed="13.57" duration="93.00" routeLength="529.05" waitSteps="39" timeLoss="51.95" rerouteNo="0" devices="tripinfo_type1.6" vType="DEFAULT_VEHTYPE" vaporized=""/>
    <tripinfo id="type2.15" depart="54.00" departLane="3to17_0" departPos="5.10" departSpeed="0.00" departDelay="0.00" arrival="115.00" arrivalLane="6to7_0" arrivalPos="393.59" arrivalSpeed="13.88" duration="61.00" routeLength="689.03" waitSteps="0" timeLoss="11.05" rerouteNo="0" devices="tripinfo_type2.15" vType="DEFAULT_VEHTYPE" vaporized=""/>
    <tripinfo id="type1.7" depart="25.00" departLane="5to4_1" departPos="5.10" departSpeed="0.00" departDelay="-0.20" arrival="116.00" arrivalLane="17to3_0" arrivalPos="174.91" arrivalSpeed="13.53" duration="91.00" routeLength="529.05" waitSteps="38" timeLoss="49.71" rerouteNo="0" devices="tripinfo_type1.7" vType="DEFAULT_VEHTYPE" vaporized=""/>
    <tripinfo id="type4.33" depart="52.00" departLane="7to6_0" departPos="5.10" departSpeed="0.00" departDelay="40.12" arrival="117.00" arrivalLane="4to5_0" arrivalPos="218.85" arrivalSpeed="13.62" duration="65.00" routeLength="826.72" waitSteps="0" timeLoss="5.27" rerouteNo="0" devices="tripinfo_type4.33" vType="DEFAULT_VEHTYPE" vaporized=""/>
    <tripinfo id="type1.8" depart="28.00" departLane="5to4_1" departPos="5.10" departSpeed="0.00" departDelay="-0.80" arrival="118.00" arrivalLane="17to3_0" arrivalPos="174.91" arrivalSpeed="12.87" duration="90.00" routeLength="529.05" waitSteps="35" timeLoss="48.56" rerouteNo="0" devices="tripinfo_type1.8" vType="DEFAULT_VEHTYPE" vaporized=""/>
    <tripinfo id="type1.2" depart="7.00" departLane="5to4_2" departPos="5.10" departSpeed="0.00" departDelay="-0.20" arrival="118.00" arrivalLane="6to7_0" arrivalPos="393.59" arrivalSpeed="13.47" duration="111.00" routeLength="818.27" waitSteps="36" timeLoss="49.76" rerouteNo="0" devices="tripinfo_type1.2" vType="DEFAULT_VEHTYPE" vaporized=""/>
    <tripinfo id="type1.10" depart="36.00" departLane="5to4_1" departPos="5.10" departSpeed="0.00" departDelay="0.00" arrival="119.00" arrivalLane="17to3_0" arrivalPos="174.91" arrivalSpeed="13.49" duration="83.00" routeLength="529.05" waitSteps="30" timeLoss="42.32" rerouteNo="0" devices="tripinfo_type1.10" vType="DEFAULT_VEHTYPE" vaporized=""/>
    <tripinfo id="type1.5" depart="18.00" departLane="5to4_2" departPos="5.10" departSpeed="0.00" departDelay="0.00" arrival="120.00" arrivalLane="6to7_0" arrivalPos="393.59" arrivalSpeed="13.02" duration="102.00" routeLength="818.27" waitSteps="25" timeLoss="41.52" rerouteNo="0" devices="tripinfo_type1.5" vType="DEFAULT_VEHTYPE" vaporized=""/>
    <tripinfo id="type1.12" depart="43.00" departLane="5to4_1" departPos="5.10" departSpeed="0.00" departDelay="-0.20" arrival="121.00" arrivalLane="17to3_1" arrivalPos="174.91" arrivalSpeed="13.83" duration="78.00" routeLength="529.05" waitSteps="25" timeLoss="36.93" rerouteNo="0" devices="tripinfo_type1.12" vType="DEFAULT_VEHTYPE" vaporized=""/>
    <tripinfo id="type1.21" depart="75.00" departLane="5to4_0" departPos="5.10" departSpeed="0.00" departDelay="-0.60" arrival="122.00" arrivalLane="14to2_0" arrivalPos="212.74" arrivalSpeed="13.93" duration="47.00" routeLength="586.22" waitSteps="0" timeLoss="5.02" rerouteNo="0" devices="tripinfo_type1.21" vType="DEFAULT_VEHTYPE" vaporized=""/>
    <tripinfo id="type1.13" depart="46.00" departLane="5to4_1" departPos="5.10" departSpeed="0.00" departDelay="-0.80" arrival="123.00" arrivalLane="17to3_0" arrivalPos="174.91" arrivalSpeed="13.17" duration="77.00" routeLength="529.05" waitSteps="22" timeLoss="35.91" rerouteNo="0" devices="tripinfo_type1.13" vType="DEFAULT_VEHTYPE" vaporized=""/>
    <tripinfo id="type2.1" depart="3.00" departLane="3to17_2" departPos="5.10" departSpeed="0.00" departDelay="-0.60" arrival="123.00" arrivalLane="4to5_1" arrivalPos="218.85" arrivalSpeed="12.86" duration="120.00" routeLength="529.42" waitSteps="66" timeLoss="79.04" rerouteNo="0" devices="tripinfo_type2.1" vType="DEFAULT_VEHTYPE" vaporized=""/>
    <tripinfo id="type2.0" depart="0.00" departLane="3to17_1" departPos="5.10" departSpeed="0.00" departDelay="0.00" arrival="123.00" arrivalLane="4to5_0" arrivalPos="218.85" arrivalSpeed="12.84" duration="123.00" routeLength="529.42" waitSteps="70" timeLoss="82.31" rerouteNo="0" devices="tripinfo_type2.0" vType="DEFAULT_VEHTYPE" vaporized=""/>
    <tripinfo id="type2.3" depart="10.00" departLane="3to17_2" departPos="5.10" departSpeed="0.00" departDelay="-0.80" arrival="125.00" arrivalLane="4to5_1" arrivalPos="218.85" arrivalSpeed="13.55" duration="115.00" routeLength="529.42" waitSteps="61" timeLoss="74.13" rerouteNo="0" devices="tripinfo_type2.3" vType="DEFAULT_VEHTYPE" vaporized=""/>
    <tripinfo id="type1.16" depart="57.00" departLane="5to4_1" departPos="5.10" departSpeed="0.00" departDelay="-0.60" arrival="125.00" arrivalLane="17to3_1" arrivalPos="174.91" arrivalSpeed="13.72" duration="68.00" routeLength="529.05" waitSteps="13" timeLoss="26.57" rerouteNo="0" devices="tripinfo_type1.16" vType="DEFAULT_VEHTYPE" vaporized=""/>
    <tripinfo id="type2.2" depart="7.00" departLane="3to17_1" departPos="5.10" departSpeed="0.00" departDelay="-0.20" arrival="126.00" arrivalLane="4to5_0" arrivalPos="218.85" arrivalSpeed="13.62" duration="119.00" routeLength="529.42" waitSteps="64" timeLoss="77.43" rerouteNo="0" devices="tripinfo_type2.2" vType="DEFAULT_VEHTYPE" vaporized=""/>
    <tripinfo id="type1.17" depart="61.00" departLane="5to4_1" departPos="5.10" departSpeed="0.00" departDelay="-0.20" arrival="127.00" arrivalLane="17to3_0" arrivalPos="174.91" arrivalSpeed="13.66" duration="66.00" routeLength="529.05" waitSteps="10" timeLoss="25.43" rerouteNo="0" devices="tripinfo_type1.17" vType="DEFAULT_VEHTYPE" vaporized=""/>
    <tripinfo id="type1.18" depart="64.00" departLane="5to4_1" departPos="5.10" departSpeed="0.00" departDelay="-0.80" arrival="129.00" arrivalLane="17to3_1" arrivalPos="174.91" arrivalSpeed="13.08" duration="65.00" routeLength="529.05" waitSteps="8" timeLoss="24.17" rerouteNo="0" devices="tripinfo_type1.18" vType="DEFAULT_VEHTYPE" vaporized=""/>