<?xml version="1.0" encoding="UTF-8"?>

<!-- generated on 06/04/16 10:30:57 by SUMO Version 0.24.0
<?xml version="1.0" encoding="UTF-8"?>

<configuration xmlns:xsi="http://www.w3.org/2001/XMLSchema-instance" xsi:noNamespaceSchemaLocation="http://sumo.dlr.de/xsd/sumoConfiguration.xsd">

    <input>
        <net-file value="C:\Users\Xavier\Dropbox\Courses\Fall\ME%20199%20-%20Final%20Year%20Project\Sumo%20Projects\\Huntington%20Colorado\\Version%206\\huntingtonColorado.net.xml"/>
        <route-files value="C:\Users\Xavier\Dropbox\Courses\Fall\ME%20199%20-%20Final%20Year%20Project\Sumo%20Projects\\Huntington%20Colorado\\Version%206\\huntingtonColorado.rou.xml"/>
    </input>

    <output>
        <tripinfo-output value="tripinfo.xml"/>
        <save-state.prefix value="C:\Users\Xavier\Dropbox\Courses\Fall\ME%20199%20-%20Final%20Year%20Project\Sumo%20Projects\\Huntington%20Colorado\\Version%206\\state"/>
    </output>

    <time>
        <begin value="0"/>
        <end value="20000"/>
    </time>

    <processing>
        <time-to-teleport value="-1"/>
    </processing>

    <emissions>
        <phemlight-path value="C:\Users\Xavier\Dropbox\Courses\Fall\ME%20199%20-%20Final%20Year%20Project\Sumo%20Projects\\Huntington%20Colorado\\Version%206\\./PHEMlight/"/>
    </emissions>

    <traci_server>
        <remote-port value="8873"/>
    </traci_server>

</configuration>
-->

<tripinfos xmlns:xsi="http://www.w3.org/2001/XMLSchema-instance" xsi:noNamespaceSchemaLocation="http://sumo.dlr.de/xsd/tripinfo_file.xsd">
    <tripinfo id="type7.0" depart="0.00" departLane="44to43_2" departPos="5.10" departSpeed="0.00" departDelay="0.00" arrival="21.00" arrivalLane="43to45_0" arrivalPos="95.42" arrivalSpeed="13.50" duration="21.00" routeLength="232.69" waitSteps="0" timeLoss="3.58" rerouteNo="0" devices="tripinfo_type7.0" vType="DEFAULT_VEHTYPE@type7.0" vaporized=""/>
    <tripinfo id="type10.0" depart="0.00" departLane="48to47_1" departPos="5.10" departSpeed="0.00" departDelay="0.00" arrival="23.00" arrivalLane="47to49_0" arrivalPos="116.13" arrivalSpeed="13.08" duration="23.00" routeLength="250.12" waitSteps="0" timeLoss="4.32" rerouteNo="0" devices="tripinfo_type10.0" vType="DEFAULT_VEHTYPE@type10.0" vaporized=""/>
    <tripinfo id="type9.1" depart="3.00" departLane="49to47_1" departPos="5.10" departSpeed="0.00" departDelay="-0.71" arrival="25.00" arrivalLane="47to48_0" arrivalPos="111.85" arrivalSpeed="13.40" duration="22.00" routeLength="250.12" waitSteps="0" timeLoss="3.75" rerouteNo="0" devices="tripinfo_type9.1" vType="DEFAULT_VEHTYPE@type9.1" vaporized=""/>
    <tripinfo id="type7.2" depart="7.00" departLane="44to43_3" departPos="5.10" departSpeed="0.00" departDelay="-0.43" arrival="28.00" arrivalLane="43to45_0" arrivalPos="95.42" arrivalSpeed="13.62" duration="21.00" routeLength="232.69" waitSteps="0" timeLoss="3.95" rerouteNo="0" devices="tripinfo_type7.2" vType="DEFAULT_VEHTYPE@type7.2" vaporized=""/>
    <tripinfo id="type9.2" depart="7.00" departLane="49to47_2" departPos="5.10" departSpeed="0.00" departDelay="-0.43" arrival="29.00" arrivalLane="47to48_0" arrivalPos="111.85" arrivalSpeed="13.36" duration="22.00" routeLength="250.12" waitSteps="0" timeLoss="3.99" rerouteNo="0" devices="tripinfo_type9.2" vType="DEFAULT_VEHTYPE@type9.2" vaporized=""/>
    <tripinfo id="type10.2" depart="7.00" departLane="48to47_2" departPos="5.10" departSpeed="0.00" departDelay="-0.95" arrival="29.00" arrivalLane="47to49_0" arrivalPos="116.13" arrivalSpeed="12.72" duration="22.00" routeLength="250.12" waitSteps="0" timeLoss="3.96" rerouteNo="0" devices="tripinfo_type10.2" vType="DEFAULT_VEHTYPE@type10.2" vaporized=""/>
    <tripinfo id="type8.0" depart="0.00" departLane="45to43_1" departPos="5.10" departSpeed="0.00" departDelay="0.00" arrival="30.00" arrivalLane="40to41_0" arrivalPos="23.24" arrivalSpeed="12.99" duration="30.00" routeLength="279.54" waitSteps="0" timeLoss="9.33" rerouteNo="0" devices="tripinfo_type8.0" vType="DEFAULT_VEHTYPE@type8.0" vaporized=""/>
    <tripinfo id="type7.3" depart="11.00" departLane="44to43_2" departPos="5.10" departSpeed="0.00" departDelay="-0.15" arrival="32.00" arrivalLane="43to45_0" arrivalPos="95.42" arrivalSpeed="13.17" duration="21.00" routeLength="232.69" waitSteps="0" timeLoss="3.72" rerouteNo="0" devices="tripinfo_type7.3" vType="DEFAULT_VEHTYPE@type7.3" vaporized=""/>
    <tripinfo id="type9.3" depart="11.00" departLane="49to47_1" departPos="5.10" departSpeed="0.00" departDelay="-0.15" arrival="33.00" arrivalLane="47to48_0" arrivalPos="111.85" arrivalSpeed="13.47" duration="22.00" routeLength="250.12" waitSteps="0" timeLoss="3.91" rerouteNo="0" devices="tripinfo_type9.3" vType="DEFAULT_VEHTYPE@type9.3" vaporized=""/>
    <tripinfo id="type10.3" depart="11.00" departLane="48to47_1" departPos="5.10" departSpeed="0.00" departDelay="-0.93" arrival="33.00" arrivalLane="47to49_0" arrivalPos="116.13" arrivalSpeed="12.97" duration="22.00" routeLength="250.12" waitSteps="0" timeLoss="3.80" rerouteNo="0" devices="tripinfo_type10.3" vType="DEFAULT_VEHTYPE@type10.3" vaporized=""/>
    <tripinfo id="type9.4" depart="14.00" departLane="49to47_2" departPos="5.10" departSpeed="0.00" departDelay="-0.86" arrival="37.00" arrivalLane="47to48_1" arrivalPos="111.85" arrivalSpeed="13.79" duration="23.00" routeLength="250.12" waitSteps="0" timeLoss="4.78" rerouteNo="0" devices="tripinfo_type9.4" vType="DEFAULT_VEHTYPE@type9.4" vaporized=""/>
    <tripinfo id="type10.4" depart="15.00" departLane="48to47_2" departPos="5.10" departSpeed="0.00" departDelay="-0.91" arrival="37.00" arrivalLane="47to49_0" arrivalPos="116.13" arrivalSpeed="13.47" duration="22.00" routeLength="250.12" waitSteps="0" timeLoss="3.49" rerouteNo="0" devices="tripinfo_type10.4" vType="DEFAULT_VEHTYPE@type10.4" vaporized=""/>
    <tripinfo id="type13.1" depart="7.00" departLane="61to60_0" departPos="5.10" departSpeed="0.00" departDelay="-0.24" arrival="38.00" arrivalLane="64to66_0" arrivalPos="23.81" arrivalSpeed="13.43" duration="31.00" routeLength="289.79" waitSteps="0" timeLoss="9.01" rerouteNo="0" devices="tripinfo_type13.1" vType="DEFAULT_VEHTYPE@type13.1" vaporized=""/>
    <tripinfo id="type9.5" depart="18.00" departLane="49to47_1" departPos="5.10" departSpeed="0.00" departDelay="-0.57" arrival="41.00" arrivalLane="47to48_0" arrivalPos="111.85" arrivalSpeed="13.55" duration="23.00" routeLength="250.12" waitSteps="0" timeLoss="4.87" rerouteNo="0" devices="tripinfo_type9.5" vType="DEFAULT_VEHTYPE@type9.5" vaporized=""/>
    <tripinfo id="type8.1" depart="12.00" departLane="45to43_1" departPos="5.10" departSpeed="0.00" departDelay="-0.12" arrival="42.00" arrivalLane="40to41_0" arrivalPos="23.24" arrivalSpeed="13.41" duration="30.00" routeLength="279.54" waitSteps="0" timeLoss="9.55" rerouteNo="0" devices="tripinfo_type8.1" vType="DEFAULT_VEHTYPE@type8.1" vaporized=""/>
    <tripinfo id="type0.8" depart="14.00" departLane="2to14_0" departPos="5.10" departSpeed="0.00" departDelay="-0.37" arrival="49.00" arrivalLane="17to3_0" arrivalPos="189.91" arrivalSpeed="12.89" duration="35.00" routeLength="422.24" waitSteps="0" timeLoss="4.73" rerouteNo="0" devices="tripinfo_type0.8" vType="DEFAULT_VEHTYPE@type0.8" vaporized=""/>
    <tripinfo id="type12.0" depart="0.00" departLane="53to52_0" departPos="5.10" departSpeed="0.00" departDelay="0.00" arrival="49.00" arrivalLane="52to54_0" arrivalPos="39.70" arrivalSpeed="13.68" duration="49.00" routeLength="116.16" waitSteps="29" timeLoss="40.54" rerouteNo="0" devices="tripinfo_type12.0" vType="DEFAULT_VEHTYPE@type12.0" vaporized=""/>
    <tripinfo id="type11.1" depart="18.00" departLane="54to52_0" departPos="5.10" departSpeed="0.00" departDelay="0.00" arrival="51.00" arrivalLane="52to53_0" arrivalPos="58.66" arrivalSpeed="12.74" duration="33.00" routeLength="116.10" waitSteps="14" timeLoss="23.80" rerouteNo="0" devices="tripinfo_type11.1" vType="DEFAULT_VEHTYPE@type11.1" vaporized=""/>
    <tripinfo id="type14.0" depart="0.00" departLane="59to58_0" departPos="5.10" departSpeed="0.00" departDelay="0.00" arrival="52.00" arrivalLane="60to61_0" arrivalPos="43.94" arrivalSpeed="13.72" duration="52.00" routeLength="200.25" waitSteps="26" timeLoss="37.44" rerouteNo="0" devices="tripinfo_type14.0" vType="DEFAULT_VEHTYPE@type14.0" vaporized=""/>
    <tripinfo id="type12.1" depart="18.00" departLane="53to52_0" departPos="5.10" departSpeed="0.00" departDelay="0.00" arrival="52.00" arrivalLane="52to54_0" arrivalPos="39.70" arrivalSpeed="13.60" duration="34.00" routeLength="116.16" waitSteps="15" timeLoss="24.85" rerouteNo="0" devices="tripinfo_type12.1" vType="DEFAULT_VEHTYPE@type12.1" vaporized=""/>
    <tripinfo id="type14.1" depart="8.00" departLane="59to58_0" departPos="5.10" departSpeed="0.00" departDelay="-0.63" arrival="53.00" arrivalLane="60to61_1" arrivalPos="43.94" arrivalSpeed="13.78" duration="45.00" routeLength="200.25" waitSteps="14" timeLoss="29.70" rerouteNo="0" devices="tripinfo_type14.1" vType="DEFAULT_VEHTYPE@type14.1" vaporized=""/>
    <tripinfo id="type11.2" depart="36.00" departLane="54to52_0" departPos="5.10" departSpeed="0.00" departDelay="0.00" arrival="53.00" arrivalLane="52to53_0" arrivalPos="58.66" arrivalSpeed="13.99" duration="17.00" routeLength="116.10" waitSteps="0" timeLoss="7.83" rerouteNo="0" devices="tripinfo_type11.2" vType="DEFAULT_VEHTYPE@type11.2" vaporized=""/>
    <tripinfo id="type14.2" depart="17.00" departLane="59to58_0" departPos="5.10" departSpeed="0.00" departDelay="-0.27" arrival="55.00" arrivalLane="60to61_0" arrivalPos="43.94" arrivalSpeed="13.31" duration="38.00" routeLength="200.25" waitSteps="9" timeLoss="23.57" rerouteNo="0" devices="tripinfo_type14.2" vType="DEFAULT_VEHTYPE@type14.2" vaporized=""/>
    <tripinfo id="type14.3" depart="25.00" departLane="59to58_0" departPos="5.10" departSpeed="0.00" departDelay="-0.90" arrival="56.00" arrivalLane="60to61_1" arrivalPos="43.94" arrivalSpeed="13.68" duration="31.00" routeLength="200.25" waitSteps="0" timeLoss="16.14" rerouteNo="0" devices="tripinfo_type14.3" vType="DEFAULT_VEHTYPE@type14.3" vaporized=""/>
    <tripinfo id="type20.1" depart="10.00" departLane="75to73_1" departPos="5.10" departSpeed="0.00" departDelay="-0.11" arrival="59.00" arrivalLane="81to83_0" arrivalPos="147.08" arrivalSpeed="13.67" duration="49.00" routeLength="490.12" waitSteps="2" timeLoss="12.50" rerouteNo="0" devices="tripinfo_type20.1" vType="DEFAULT_VEHTYPE@type20.1" vaporized=""/>
    <tripinfo id="type20.2" depart="20.00" departLane="75to73_1" departPos="5.10" departSpeed="0.00" departDelay="-0.22" arrival="61.00" arrivalLane="81to83_1" arrivalPos="147.08" arrivalSpeed="13.78" duration="41.00" routeLength="490.12" waitSteps="0" timeLoss="4.74" rerouteNo="0" devices="tripinfo_type20.2" vType="DEFAULT_VEHTYPE@type20.2" vaporized=""/>
    <tripinfo id="type14.4" depart="34.00" departLane="59to58_0" departPos="5.10" departSpeed="0.00" departDelay="-0.53" arrival="62.00" arrivalLane="60to61_0" arrivalPos="43.94" arrivalSpeed="13.04" duration="28.00" routeLength="200.25" waitSteps="0" timeLoss="13.62" rerouteNo="0" devices="tripinfo_type14.4" vType="DEFAULT_VEHTYPE@type14.4" vaporized=""/>
    <tripinfo id="type22.6" depart="19.00" departLane="83to81_0" departPos="5.10" departSpeed="0.00" departDelay="-0.63" arrival="62.00" arrivalLane="81to82_0" arrivalPos="117.39" arrivalSpeed="13.23" duration="43.00" routeLength="267.26" waitSteps="8" timeLoss="23.48" rerouteNo="0" devices="tripinfo_type22.6" vType="DEFAULT_VEHTYPE@type22.6" vaporized=""/>
    <tripinfo id="type13.2" depart="14.00" departLane="61to60_0" departPos="5.10" departSpeed="0.00" departDelay="-0.49" arrival="64.00" arrivalLane="69to71_0" arrivalPos="45.46" arrivalSpeed="13.11" duration="50.00" routeLength="521.65" waitSteps="0" timeLoss="11.58" rerouteNo="0" devices="tripinfo_type13.2" vType="DEFAULT_VEHTYPE@type13.2" vaporized=""/>
    <tripinfo id="type22.10" depart="32.00" departLane="83to81_0" departPos="5.10" departSpeed="0.00" departDelay="-0.72" arrival="65.00" arrivalLane="81to82_0" arrivalPos="117.39" arrivalSpeed="12.97" duration="33.00" routeLength="267.26" waitSteps="0" timeLoss="13.68" rerouteNo="0" devices="tripinfo_type22.10" vType="DEFAULT_VEHTYPE@type22.10" vaporized=""/>
    <tripinfo id="type21.3" depart="19.00" departLane="82to81_1" departPos="5.10" departSpeed="0.00" departDelay="-0.46" arrival="66.00" arrivalLane="69to70_0" arrivalPos="46.20" arrivalSpeed="13.98" duration="47.00" routeLength="573.86" waitSteps="0" timeLoss="5.59" rerouteNo="0" devices="tripinfo_type21.3" vType="DEFAULT_VEHTYPE@type21.3" vaporized=""/>
    <tripinfo id="type13.6" depart="43.00" departLane="61to60_0" departPos="5.10" departSpeed="0.00" departDelay="-0.46" arrival="68.00" arrivalLane="58to59_0" arrivalPos="53.98" arrivalSpeed="13.36" duration="25.00" routeLength="206.22" waitSteps="0" timeLoss="10.05" rerouteNo="0" devices="tripinfo_type13.6" vType="DEFAULT_VEHTYPE@type13.6" vaporized=""/>
    <tripinfo id="type22.11" depart="35.00" departLane="83to81_0" departPos="5.10" departSpeed="0.00" departDelay="-0.99" arrival="68.00" arrivalLane="81to82_0" arrivalPos="117.39" arrivalSpeed="12.83" duration="33.00" routeLength="267.26" waitSteps="0" timeLoss="13.88" rerouteNo="0" devices="tripinfo_type22.11" vType="DEFAULT_VEHTYPE@type22.11" vaporized=""/>
    <tripinfo id="type10.7" depart="27.00" departLane="48to47_0" departPos="5.10" departSpeed="0.00" departDelay="-0.84" arrival="70.00" arrivalLane="43to45_0" arrivalPos="95.42" arrivalSpeed="13.14" duration="43.00" routeLength="532.41" waitSteps="0" timeLoss="4.72" rerouteNo="0" devices="tripinfo_type10.7" vType="DEFAULT_VEHTYPE@type10.7" vaporized=""/>
    <tripinfo id="type11.3" depart="54.00" departLane="54to52_0" departPos="5.10" departSpeed="0.00" departDelay="0.00" arrival="71.00" arrivalLane="52to53_0" arrivalPos="58.66" arrivalSpeed="13.90" duration="17.00" routeLength="116.10" waitSteps="0" timeLoss="8.29" rerouteNo="0" devices="tripinfo_type11.3" vType="DEFAULT_VEHTYPE@type11.3" vaporized=""/>
    <tripinfo id="type17.0" depart="0.00" departLane="71to69_0" departPos="5.10" departSpeed="0.00" departDelay="0.00" arrival="72.00" arrivalLane="81to83_0" arrivalPos="147.08" arrivalSpeed="13.22" duration="72.00" routeLength="610.03" waitSteps="8" timeLoss="27.60" rerouteNo="0" devices="tripinfo_type17.0" vType="DEFAULT_VEHTYPE@type17.0" vaporized=""/>
    <tripinfo id="type0.21" depart="37.00" departLane="2to14_0" departPos="5.10" departSpeed="0.00" departDelay="-0.72" arrival="72.00" arrivalLane="17to3_0" arrivalPos="189.91" arrivalSpeed="13.71" duration="35.00" routeLength="422.24" waitSteps="0" timeLoss="4.32" rerouteNo="0" devices="tripinfo_type0.21" vType="DEFAULT_VEHTYPE@type0.21" vaporized=""/>
    <tripinfo id="type22.13" depart="42.00" departLane="83to81_0" departPos="5.10" departSpeed="0.00" departDelay="-0.54" arrival="73.00" arrivalLane="81to82_0" arrivalPos="117.39" arrivalSpeed="12.72" duration="31.00" routeLength="267.26" waitSteps="0" timeLoss="11.77" rerouteNo="0" devices="tripinfo_type22.13" vType="DEFAULT_VEHTYPE@type22.13" vaporized=""/>
    <tripinfo id="type14.6" depart="51.00" departLane="59to58_0" departPos="5.10" departSpeed="0.00" departDelay="-0.80" arrival="76.00" arrivalLane="60to61_0" arrivalPos="43.94" arrivalSpeed="13.05" duration="25.00" routeLength="200.25" waitSteps="0" timeLoss="10.36" rerouteNo="0" devices="tripinfo_type14.6" vType="DEFAULT_VEHTYPE@type14.6" vaporized=""/>
    <tripinfo id="type22.17" depart="55.00" departLane="83to81_0" departPos="5.10" departSpeed="0.00" departDelay="-0.62" arrival="79.00" arrivalLane="81to82_0" arrivalPos="117.39" arrivalSpeed="13.71" duration="24.00" routeLength="267.26" waitSteps="0" timeLoss="4.82" rerouteNo="0" devices="tripinfo_type22.17" vType="DEFAULT_VEHTYPE@type22.17" vaporized=""/>
    <tripinfo id="type14.5" depart="43.00" departLane="59to58_2" departPos="5.10" departSpeed="0.00" departDelay="-0.16" arrival="81.00" arrivalLane="64to66_0" arrivalPos="23.81" arrivalSpeed="13.55" duration="38.00" routeLength="304.40" waitSteps="1" timeLoss="14.75" rerouteNo="0" devices="tripinfo_type14.5" vType="DEFAULT_VEHTYPE@type14.5" vaporized=""/>
    <tripinfo id="type18.0" depart="0.00" departLane="70to69_0" departPos="5.10" departSpeed="0.00" departDelay="0.00" arrival="85.00" arrivalLane="60to61_1" arrivalPos="43.94" arrivalSpeed="13.70" duration="85.00" routeLength="522.68" waitSteps="26" timeLoss="45.93" rerouteNo="0" devices="tripinfo_type18.0" vType="DEFAULT_VEHTYPE@type18.0" vaporized=""/>
    <tripinfo id="type22.4" depart="13.00" departLane="83to81_0" departPos="5.10" departSpeed="0.00" departDelay="-0.09" arrival="85.00" arrivalLane="69to70_0" arrivalPos="46.20" arrivalSpeed="13.05" duration="72.00" routeLength="594.10" waitSteps="16" timeLoss="27.67" rerouteNo="0" devices="tripinfo_type22.4" vType="DEFAULT_VEHTYPE@type22.4" vaporized=""/>
    <tripinfo id="type13.0" depart="0.00" departLane="61to60_0" departPos="5.10" departSpeed="0.00" departDelay="0.00" arrival="86.00" arrivalLane="81to83_0" arrivalPos="147.08" arrivalSpeed="13.03" duration="86.00" routeLength="1046.61" waitSteps="0" timeLoss="9.80" rerouteNo="0" devices="tripinfo_type13.0" vType="DEFAULT_VEHTYPE@type13.0" vaporized=""/>
    <tripinfo id="type18.1" depart="18.00" departLane="70to69_0" departPos="5.10" departSpeed="0.00" departDelay="0.00" arrival="86.00" arrivalLane="69to71_0" arrivalPos="45.46" arrivalSpeed="12.81" duration="68.00" routeLength="112.86" waitSteps="47" timeLoss="59.64" rerouteNo="0" devices="tripinfo_type18.1" vType="DEFAULT_VEHTYPE@type18.1" vaporized=""/>
    <tripinfo id="type18.2" depart="36.00" departLane="70to69_0" departPos="5.10" departSpeed="0.00" departDelay="0.00" arrival="89.00" arrivalLane="69to71_0" arrivalPos="45.46" arrivalSpeed="13.73" duration="53.00" routeLength="112.86" waitSteps="31" timeLoss="44.52" rerouteNo="0" devices="tripinfo_type18.2" vType="DEFAULT_VEHTYPE@type18.2" vaporized=""/>
    <tripinfo id="type17.1" depart="18.00" departLane="71to69_0" departPos="5.10" departSpeed="0.00" departDelay="0.00" arrival="91.00" arrivalLane="69to70_0" arrivalPos="46.20" arrivalSpeed="13.77" duration="73.00" routeLength="112.63" waitSteps="50" timeLoss="64.24" rerouteNo="0" devices="tripinfo_type17.1" vType="DEFAULT_VEHTYPE@type17.1" vaporized=""/>
    <tripinfo id="type22.21" depart="68.00" departLane="83to81_0" departPos="5.10" departSpeed="0.00" departDelay="-0.71" arrival="92.00" arrivalLane="81to82_0" arrivalPos="117.39" arrivalSpeed="12.86" duration="24.00" routeLength="267.26" waitSteps="0" timeLoss="4.38" rerouteNo="0" devices="tripinfo_type22.21" vType="DEFAULT_VEHTYPE@type22.21" vaporized=""/>
    <tripinfo id="type18.4" depart="72.00" departLane="70to69_0" departPos="5.10" departSpeed="0.00" departDelay="0.00" arrival="94.00" arrivalLane="69to71_0" arrivalPos="45.46" arrivalSpeed="13.29" duration="22.00" routeLength="112.86" waitSteps="3" timeLoss="13.83" rerouteNo="0" devices="tripinfo_type18.4" vType="DEFAULT_VEHTYPE@type18.4" vaporized=""/>
    <tripinfo id="type21.1" depart="6.00" departLane="82to81_1" departPos="5.10" departSpeed="0.00" departDelay="-0.49" arrival="95.00" arrivalLane="60to61_1" arrivalPos="43.94" arrivalSpeed="13.98" duration="89.00" routeLength="1007.39" waitSteps="0" timeLoss="14.61" rerouteNo="0" devices="tripinfo_type21.1" vType="DEFAULT_VEHTYPE@type21.1" vaporized=""/>
    <tripinfo id="type1.12" depart="48.00" departLane="5to4_0" departPos="5.10" departSpeed="0.00" departDelay="0.00" arrival="95.00" arrivalLane="14to2_0" arrivalPos="213.52" arrivalSpeed="13.69" duration="47.00" routeLength="587.20" waitSteps="0" timeLoss="4.66" rerouteNo="0" devices="tripinfo_type1.12" vType="DEFAULT_VEHTYPE@type1.12" vaporized=""/>
    <tripinfo id="type2.1" depart="4.00" departLane="3to17_3" departPos="5.10" departSpeed="0.00" departDelay="-0.21" arrival="97.00" arrivalLane="14to2_1" arrivalPos="213.52" arrivalSpeed="13.51" duration="93.00" routeLength="421.15" waitSteps="45" timeLoss="60.52" rerouteNo="0" devices="tripinfo_type2.1" vType="DEFAULT_VEHTYPE@type2.1" vaporized=""/>
    <tripinfo id="type22.18" depart="58.00" departLane="83to81_0" departPos="5.10" departSpeed="0.00" departDelay="-0.90" arrival="97.00" arrivalLane="79to80_0" arrivalPos="21.79" arrivalSpeed="13.32" duration="39.00" routeLength="442.31" waitSteps="0" timeLoss="5.74" rerouteNo="0" devices="tripinfo_type22.18" vType="DEFAULT_VEHTYPE@type22.18" vaporized=""/>
    <tripinfo id="type0.36" depart="64.00" departLane="2to14_0" departPos="5.10" departSpeed="0.00" departDelay="-0.66" arrival="99.00" arrivalLane="17to3_0" arrivalPos="189.91" arrivalSpeed="13.86" duration="35.00" routeLength="422.24" waitSteps="0" timeLoss="4.76" rerouteNo="0" devices="tripinfo_type0.36" vType="DEFAULT_VEHTYPE@type0.36" vaporized=""/>
    <tripinfo id="type17.3" depart="54.00" departLane="71to69_0" departPos="5.10" departSpeed="0.00" departDelay="0.00" arrival="99.00" arrivalLane="69to70_0" arrivalPos="46.20" arrivalSpeed="13.18" duration="45.00" routeLength="112.63" waitSteps="17" timeLoss="35.99" rerouteNo="0" devices="tripinfo_type17.3" vType="DEFAULT_VEHTYPE@type17.3" vaporized=""/>
    <tripinfo id="type21.0" depart="0.00" departLane="82to81_1" departPos="5.10" departSpeed="0.00" departDelay="0.00" arrival="101.00" arrivalLane="60to61_1" arrivalPos="43.94" arrivalSpeed="13.51" duration="101.00" routeLength="1007.39" waitSteps="0" timeLoss="27.03" rerouteNo="0" devices="tripinfo_type21.0" vType="DEFAULT_VEHTYPE@type21.0" vaporized=""/>
    <tripinfo id="type17.4" depart="72.00" departLane="71to69_0" departPos="5.10" departSpeed="0.00" departDelay="0.00" arrival="102.00" arrivalLane="69to70_0" arrivalPos="46.20" arrivalSpeed="12.78" duration="30.00" routeLength="112.63" waitSteps="1" timeLoss="21.70" rerouteNo="0" devices="tripinfo_type17.4" vType="DEFAULT_VEHTYPE@type17.4" vaporized=""/>
    <tripinfo id="type21.7" depart="45.00" departLane="82to81_1" departPos="5.10" departSpeed="0.00" departDelay="-0.40" arrival="104.00" arrivalLane="81to83_1" arrivalPos="147.08" arrivalSpeed="13.25" duration="59.00" routeLength="259.37" waitSteps="23" timeLoss="38.45" rerouteNo="0" devices="tripinfo_type21.7" vType="DEFAULT_VEHTYPE@type21.7" vaporized=""/>
    <tripinfo id="type7.5" depart="18.00" departLane="44to43_3" departPos="5.10" departSpeed="0.00" departDelay="-0.57" arrival="105.00" arrivalLane="43to45_0" arrivalPos="95.42" arrivalSpeed="13.56" duration="87.00" routeLength="232.69" waitSteps="56" timeLoss="69.77" rerouteNo="0" devices="tripinfo_type7.5" vType="DEFAULT_VEHTYPE@type7.5" vaporized=""/>
    <tripinfo id="type7.4" depart="14.00" departLane="44to43_3" departPos="5.10" departSpeed="0.00" departDelay="-0.86" arrival="105.00" arrivalLane="43to45_1" arrivalPos="95.42" arrivalSpeed="13.53" duration="91.00" routeLength="232.69" waitSteps="61" timeLoss="73.77" rerouteNo="0" devices="tripinfo_type7.4" vType="DEFAULT_VEHTYPE@type7.4" vaporized=""/>
    <tripinfo id="type18.5" depart="90.00" departLane="70to69_0" departPos="5.10" departSpeed="0.00" departDelay="0.00" arrival="105.00" arrivalLane="69to71_0" arrivalPos="45.46" arrivalSpeed="12.84" duration="15.00" routeLength="112.86" waitSteps="0" timeLoss="6.49" rerouteNo="0" devices="tripinfo_type18.5" vType="DEFAULT_VEHTYPE@type18.5" vaporized=""/>
    <tripinfo id="type11.4" depart="72.00" departLane="54to52_0" departPos="5.10" departSpeed="0.00" departDelay="0.00" arrival="107.00" arrivalLane="60to61_0" arrivalPos="43.94" arrivalSpeed="12.83" duration="35.00" routeLength="431.53" waitSteps="0" timeLoss="4.11" rerouteNo="0" devices="tripinfo_type11.4" vType="DEFAULT_VEHTYPE@type11.4" vaporized=""/>
    <tripinfo id="type1.0" depart="0.00" departLane="5to4_1" departPos="5.10" departSpeed="0.00" departDelay="0.00" arrival="107.00" arrivalLane="17to3_0" arrivalPos="189.91" arrivalSpeed="13.68" duration="107.00" routeLength="529.50" waitSteps="50" timeLoss="65.53" rerouteNo="0" devices="tripinfo_type1.0" vType="DEFAULT_VEHTYPE@type1.0" vaporized=""/>
    <tripinfo id="type7.6" depart="22.00" departLane="44to43_2" departPos="5.10" departSpeed="0.00" departDelay="-0.29" arrival="107.00" arrivalLane="43to45_0" arrivalPos="95.42" arrivalSpeed="13.51" duration="85.00" routeLength="232.69" waitSteps="55" timeLoss="68.07" rerouteNo="0" devices="tripinfo_type7.6" vType="DEFAULT_VEHTYPE@type7.6" vaporized=""/>
    <tripinfo id="type7.7" depart="26.00" departLane="44to43_3" departPos="5.10" departSpeed="0.00" departDelay="0.00" arrival="108.00" arrivalLane="43to45_1" arrivalPos="95.42" arrivalSpeed="13.78" duration="82.00" routeLength="232.69" waitSteps="51" timeLoss="64.96" rerouteNo="0" devices="tripinfo_type7.7" vType="DEFAULT_VEHTYPE@type7.7" vaporized=""/>
    <tripinfo id="type21.8" depart="51.00" departLane="82to81_1" departPos="5.10" departSpeed="0.00" departDelay="-0.89" arrival="108.00" arrivalLane="81to83_1" arrivalPos="147.08" arrivalSpeed="13.06" duration="57.00" routeLength="259.37" waitSteps="17" timeLoss="35.93" rerouteNo="0" devices="tripinfo_type21.8" vType="DEFAULT_VEHTYPE@type21.8" vaporized=""/>
    <tripinfo id="type17.5" depart="90.00" departLane="71to69_0" departPos="5.10" departSpeed="0.00" departDelay="0.00" arrival="108.00" arrivalLane="69to70_0" arrivalPos="46.20" arrivalSpeed="13.62" duration="18.00" routeLength="112.63" waitSteps="0" timeLoss="9.74" rerouteNo="0" devices="tripinfo_type17.5" vType="DEFAULT_VEHTYPE@type17.5" vaporized=""/>
    <tripinfo id="type1.2" depart="8.00" departLane="5to4_1" departPos="5.10" departSpeed="0.00" departDelay="0.00" arrival="109.00" arrivalLane="17to3_0" arrivalPos="189.91" arrivalSpeed="13.10" duration="101.00" routeLength="529.50" waitSteps="47" timeLoss="59.95" rerouteNo="0" devices="tripinfo_type1.2" vType="DEFAULT_VEHTYPE@type1.2" vaporized=""/>
    <tripinfo id="type7.9" depart="33.00" departLane="44to43_2" departPos="5.10" departSpeed="0.00" departDelay="-0.44" arrival="110.00" arrivalLane="43to45_0" arrivalPos="95.42" arrivalSpeed="13.35" duration="77.00" routeLength="232.69" waitSteps="44" timeLoss="60.22" rerouteNo="0" devices="tripinfo_type7.9" vType="DEFAULT_VEHTYPE@type7.9" vaporized=""/>
    <tripinfo id="type7.12" depart="44.00" departLane="44to43_3" departPos="5.10" departSpeed="0.00" departDelay="-0.58" arrival="110.00" arrivalLane="43to45_1" arrivalPos="95.42" arrivalSpeed="13.57" duration="66.00" routeLength="232.69" waitSteps="36" timeLoss="49.24" rerouteNo="0" devices="tripinfo_type7.12" vType="DEFAULT_VEHTYPE@type7.12" vaporized=""/>
    <tripinfo id="type21.6" depart="38.00" departLane="82to81_0" departPos="5.10" departSpeed="0.00" departDelay="-0.92" arrival="111.00" arrivalLane="79to80_0" arrivalPos="21.79" arrivalSpeed="13.83" duration="73.00" routeLength="422.07" waitSteps="28" timeLoss="42.25" rerouteNo="0" devices="tripinfo_type21.6" vType="DEFAULT_VEHTYPE@type21.6" vaporized=""/>
    <tripinfo id="type2.4" depart="16.00" departLane="3to17_1" departPos="5.10" departSpeed="0.00" departDelay="-0.86" arrival="114.00" arrivalLane="9to8_0" arrivalPos="19.83" arrivalSpeed="13.46" duration="98.00" routeLength="437.72" waitSteps="46" timeLoss="63.25" rerouteNo="0" devices="tripinfo_type2.4" vType="DEFAULT_VEHTYPE@type2.4" vaporized=""/>
    <tripinfo id="type0.44" depart="79.00" departLane="2to14_0" departPos="5.10" departSpeed="0.00" departDelay="-0.02" arrival="114.00" arrivalLane="17to3_0" arrivalPos="189.91" arrivalSpeed="13.81" duration="35.00" routeLength="422.24" waitSteps="0" timeLoss="4.19" rerouteNo="0" devices="tripinfo_type0.44" vType="DEFAULT_VEHTYPE@type0.44" vaporized=""/>
    <tripinfo id="type7.13" depart="48.00" departLane="44to43_2" departPos="5.10" departSpeed="0.00" departDelay="-0.30" arrival="114.00" arrivalLane="43to45_0" arrivalPos="95.42" arrivalSpeed="13.85" duration="66.00" routeLength="232.69" waitSteps="33" timeLoss="48.55" rerouteNo="0" devices="tripinfo_type7.13" vType="DEFAULT_VEHTYPE@type7.13" vaporized=""/>
    <tripinfo id="type7.14" depart="52.00" departLane="44to43_3" departPos="5.10" departSpeed="0.00" departDelay="-0.01" arrival="114.00" arrivalLane="43to45_1" arrivalPos="95.42" arrivalSpeed="12.81" duration="62.00" routeLength="232.69" waitSteps="28" timeLoss="44.44" rerouteNo="0" devices="tripinfo_type7.14" vType="DEFAULT_VEHTYPE@type7.14" vaporized=""/>
    <tripinfo id="type21.13" depart="84.00" departLane="82to81_1" departPos="5.10" departSpeed="0.00" departDelay="-0.32" arrival="114.00" arrivalLane="81to83_1" arrivalPos="147.08" arrivalSpeed="13.34" duration="30.00" routeLength="259.37" waitSteps="0" timeLoss="9.29" rerouteNo="0" devices="tripinfo_type21.13" vType="DEFAULT_VEHTYPE@type21.13" vaporized=""/>
    <tripinfo id="type21.12" depart="77.00" departLane="82to81_0" departPos="5.10" departSpeed="0.00" departDelay="-0.83" arrival="115.00" arrivalLane="79to80_0" arrivalPos="21.79" arrivalSpeed="13.39" duration="38.00" routeLength="422.07" waitSteps="0" timeLoss="6.98" rerouteNo="0" devices="tripinfo_type21.12" vType="DEFAULT_VEHTYPE@type21.12" vaporized=""/>
    <tripinfo id="type2.3" depart="12.00" departLane="3to17_2" departPos="5.10" departSpeed="0.00" departDelay="-0.65" arrival="117.00" arrivalLane="4to5_1" arrivalPos="210.10" arrivalSpeed="13.90" duration="105.00" routeLength="530.58" waitSteps="47" timeLoss="63.72" rerouteNo="0" devices="tripinfo_type2.3" vType="DEFAULT_VEHTYPE@type2.3" vaporized=""/>
    <tripinfo id="type2.0" depart="0.00" departLane="3to17_1" departPos="5.10" departSpeed="0.00" departDelay="0.00" arrival="117.00" arrivalLane="4to5_0" arrivalPos="210.10" arrivalSpeed="13.78" duration="117.00" routeLength="530.58" waitSteps="63" timeLoss="75.82" rerouteNo="0" devices="tripinfo_type2.0" vType="DEFAULT_VEHTYPE@type2.0" vaporized=""/>