<?xml version="1.0" encoding="UTF-8"?>

<!-- generated on 7/28/2016 10:08:34 AM by SUMO gui Version 0.25.0
<?xml version="1.0" encoding="UTF-8"?>

<configuration xmlns:xsi="http://www.w3.org/2001/XMLSchema-instance" xsi:noNamespaceSchemaLocation="http://sumo.dlr.de/xsd/sumo-gui.exeConfiguration.xsd">

    <input>
        <net-file value="cross1ltl/net.net.xml"/>
        <route-files value="cross1ltl/input_routes_0.rou.xml"/>
        <additional-files value="cross1ltl/det.det.xml"/>
    </input>

    <output>
        <save-state.prefix value="cross1ltl/state"/>
    </output>

    <time>
        <step-length value="0.05"/>
    </time>

    <processing>
        <time-to-teleport value="-1"/>
    </processing>

    <report>
        <xml-validation value="never"/>
        <duration-log.disable value="true"/>
        <no-step-log value="true"/>
    </report>

    <emissions>
        <phemlight-path value="cross1ltl/./PHEMlight/"/>
    </emissions>

    <traci_server>
        <remote-port value="8873"/>
    </traci_server>

</configuration>
-->

<detector xmlns:xsi="http://www.w3.org/2001/XMLSchema-instance" xsi:noNamespaceSchemaLocation="http://sumo.dlr.de/xsd/det_e1_file.xsd">
</detector>
