<?xml version="1.0" encoding="UTF-8"?>

<!-- generated on 6/29/2016 11:23:08 AM by SUMO gui Version 0.25.0
<?xml version="1.0" encoding="UTF-8"?>

<configuration xmlns:xsi="http://www.w3.org/2001/XMLSchema-instance" xsi:noNamespaceSchemaLocation="http://sumo.dlr.de/xsd/sumo-gui.exeConfiguration.xsd">

    <input>
        <net-file value="cross1ltl/net.net.xml"/>
        <route-files value="cross1ltl/input_routes.rou.xml"/>
        <additional-files value="cross1ltl/det.det.xml"/>
    </input>

    <output>
        <fcd-output value="fcd.xml"/>
        <save-state.prefix value="cross1ltl/state"/>
    </output>

    <time>
        <step-length value="0.05"/>
    </time>

    <processing>
        <time-to-teleport value="-1"/>
    </processing>

    <report>
        <xml-validation value="never"/>
        <duration-log.disable value="true"/>
        <no-step-log value="true"/>
    </report>

    <emissions>
        <phemlight-path value="cross1ltl/./PHEMlight/"/>
    </emissions>

    <traci_server>
        <remote-port value="8873"/>
    </traci_server>

</configuration>
-->

<fcd-export xmlns:xsi="http://www.w3.org/2001/XMLSchema-instance" xsi:noNamespaceSchemaLocation="http://sumo.dlr.de/xsd/fcd_file.xsd">
    <timestep time="0.00"/>
    <timestep time="0.05"/>
    <timestep time="0.10"/>
    <timestep time="0.15"/>
    <timestep time="0.20"/>
    <timestep time="0.25">
        <vehicle id="1.0" x="5.10" y="498.35" angle="90.00" type="CarA" speed="0.00" pos="5.10" lane="1i_0" slope="0.00"/>
    </timestep>
    <timestep time="0.30">
        <vehicle id="1.0" x="5.11" y="498.35" angle="90.00" type="CarA" speed="0.13" pos="5.11" lane="1i_0" slope="0.00"/>
    </timestep>
    <timestep time="0.35">
        <vehicle id="1.0" x="5.12" y="498.35" angle="90.00" type="CarA" speed="0.26" pos="5.12" lane="1i_0" slope="0.00"/>
    </timestep>
    <timestep time="0.40">
        <vehicle id="1.0" x="5.14" y="498.35" angle="90.00" type="CarA" speed="0.39" pos="5.14" lane="1i_0" slope="0.00"/>
    </timestep>
    <timestep time="0.45">
        <vehicle id="1.0" x="5.16" y="498.35" angle="90.00" type="CarA" speed="0.52" pos="5.16" lane="1i_0" slope="0.00"/>
    </timestep>
    <timestep time="0.50">
        <vehicle id="1.0" x="5.20" y="498.35" angle="90.00" type="CarA" speed="0.65" pos="5.20" lane="1i_0" slope="0.00"/>
    </timestep>
    <timestep time="0.55">
        <vehicle id="1.0" x="5.24" y="498.35" angle="90.00" type="CarA" speed="0.78" pos="5.24" lane="1i_0" slope="0.00"/>
    </timestep>
    <timestep time="0.60">
        <vehicle id="1.0" x="5.28" y="498.35" angle="90.00" type="CarA" speed="0.91" pos="5.28" lane="1i_0" slope="0.00"/>
    </timestep>
    <timestep time="0.65">
        <vehicle id="1.0" x="5.33" y="498.35" angle="90.00" type="CarA" speed="1.04" pos="5.33" lane="1i_0" slope="0.00"/>
    </timestep>
    <timestep time="0.70">
        <vehicle id="1.0" x="5.39" y="498.35" angle="90.00" type="CarA" speed="1.17" pos="5.39" lane="1i_0" slope="0.00"/>
    </timestep>
    <timestep time="0.75">
        <vehicle id="1.0" x="5.46" y="498.35" angle="90.00" type="CarA" speed="1.30" pos="5.46" lane="1i_0" slope="0.00"/>
    </timestep>
    <timestep time="0.80">
        <vehicle id="1.0" x="5.53" y="498.35" angle="90.00" type="CarA" speed="1.43" pos="5.53" lane="1i_0" slope="0.00"/>
    </timestep>
    <timestep time="0.85">
        <vehicle id="1.0" x="5.61" y="498.35" angle="90.00" type="CarA" speed="1.56" pos="5.61" lane="1i_0" slope="0.00"/>
    </timestep>
    <timestep time="0.90">
        <vehicle id="1.0" x="5.69" y="498.35" angle="90.00" type="CarA" speed="1.69" pos="5.69" lane="1i_0" slope="0.00"/>
    </timestep>
    <timestep time="0.95">
        <vehicle id="1.0" x="5.78" y="498.35" angle="90.00" type="CarA" speed="1.82" pos="5.78" lane="1i_0" slope="0.00"/>
    </timestep>
    <timestep time="1.00">
        <vehicle id="1.0" x="5.88" y="498.35" angle="90.00" type="CarA" speed="1.95" pos="5.88" lane="1i_0" slope="0.00"/>
    </timestep>
    <timestep time="1.05">
        <vehicle id="1.0" x="5.98" y="498.35" angle="90.00" type="CarA" speed="2.08" pos="5.98" lane="1i_0" slope="0.00"/>
    </timestep>
    <timestep time="1.10">
        <vehicle id="1.0" x="6.09" y="498.35" angle="90.00" type="CarA" speed="2.21" pos="6.09" lane="1i_0" slope="0.00"/>
    </timestep>
    <timestep time="1.15">
        <vehicle id="1.0" x="6.21" y="498.35" angle="90.00" type="CarA" speed="2.34" pos="6.21" lane="1i_0" slope="0.00"/>
    </timestep>
    <timestep time="1.20">
        <vehicle id="1.0" x="6.34" y="498.35" angle="90.00" type="CarA" speed="2.47" pos="6.34" lane="1i_0" slope="0.00"/>
    </timestep>
    <timestep time="1.25">
        <vehicle id="1.0" x="6.46" y="498.35" angle="90.00" type="CarA" speed="2.60" pos="6.46" lane="1i_0" slope="0.00"/>
    </timestep>
    <timestep time="1.30">
        <vehicle id="1.0" x="6.60" y="498.35" angle="90.00" type="CarA" speed="2.73" pos="6.60" lane="1i_0" slope="0.00"/>
    </timestep>
    <timestep time="1.35">
        <vehicle id="1.0" x="6.74" y="498.35" angle="90.00" type="CarA" speed="2.86" pos="6.74" lane="1i_0" slope="0.00"/>
    </timestep>
    <timestep time="1.40">
        <vehicle id="1.0" x="6.89" y="498.35" angle="90.00" type="CarA" speed="2.99" pos="6.89" lane="1i_0" slope="0.00"/>
    </timestep>
    <timestep time="1.45">
        <vehicle id="1.0" x="7.05" y="498.35" angle="90.00" type="CarA" speed="3.12" pos="7.05" lane="1i_0" slope="0.00"/>
    </timestep>
    <timestep time="1.50">
        <vehicle id="1.0" x="7.21" y="498.35" angle="90.00" type="CarA" speed="3.25" pos="7.21" lane="1i_0" slope="0.00"/>
    </timestep>
    <timestep time="1.55">
        <vehicle id="1.0" x="7.38" y="498.35" angle="90.00" type="CarA" speed="3.38" pos="7.38" lane="1i_0" slope="0.00"/>
    </timestep>
    <timestep time="1.60">
        <vehicle id="1.0" x="7.56" y="498.35" angle="90.00" type="CarA" speed="3.51" pos="7.56" lane="1i_0" slope="0.00"/>
    </timestep>
    <timestep time="1.65">
        <vehicle id="1.0" x="7.74" y="498.35" angle="90.00" type="CarA" speed="3.64" pos="7.74" lane="1i_0" slope="0.00"/>
    </timestep>
    <timestep time="1.70">
        <vehicle id="1.0" x="7.93" y="498.35" angle="90.00" type="CarA" speed="3.77" pos="7.93" lane="1i_0" slope="0.00"/>
    </timestep>
    <timestep time="1.75">
        <vehicle id="1.0" x="8.12" y="498.35" angle="90.00" type="CarA" speed="3.90" pos="8.12" lane="1i_0" slope="0.00"/>
    </timestep>
    <timestep time="1.80">
        <vehicle id="1.0" x="8.32" y="498.35" angle="90.00" type="CarA" speed="4.03" pos="8.32" lane="1i_0" slope="0.00"/>
    </timestep>
    <timestep time="1.85">
        <vehicle id="1.0" x="8.53" y="498.35" angle="90.00" type="CarA" speed="4.16" pos="8.53" lane="1i_0" slope="0.00"/>
    </timestep>
    <timestep time="1.90">
        <vehicle id="1.0" x="8.75" y="498.35" angle="90.00" type="CarA" speed="4.29" pos="8.75" lane="1i_0" slope="0.00"/>
    </timestep>
    <timestep time="1.95">
        <vehicle id="1.0" x="8.97" y="498.35" angle="90.00" type="CarA" speed="4.42" pos="8.97" lane="1i_0" slope="0.00"/>
    </timestep>
    <timestep time="2.00">
        <vehicle id="1.0" x="9.19" y="498.35" angle="90.00" type="CarA" speed="4.55" pos="9.19" lane="1i_0" slope="0.00"/>
    </timestep>
    <timestep time="2.05">
        <vehicle id="1.0" x="9.43" y="498.35" angle="90.00" type="CarA" speed="4.68" pos="9.43" lane="1i_0" slope="0.00"/>
    </timestep>
    <timestep time="2.10">
        <vehicle id="1.0" x="9.67" y="498.35" angle="90.00" type="CarA" speed="4.81" pos="9.67" lane="1i_0" slope="0.00"/>
    </timestep>
    <timestep time="2.15">
        <vehicle id="1.0" x="9.92" y="498.35" angle="90.00" type="CarA" speed="4.94" pos="9.92" lane="1i_0" slope="0.00"/>
    </timestep>
    <timestep time="2.20">
        <vehicle id="1.0" x="10.17" y="498.35" angle="90.00" type="CarA" speed="5.07" pos="10.17" lane="1i_0" slope="0.00"/>
    </timestep>
    <timestep time="2.25">
        <vehicle id="1.0" x="10.43" y="498.35" angle="90.00" type="CarA" speed="5.20" pos="10.43" lane="1i_0" slope="0.00"/>
    </timestep>
    <timestep time="2.30">
        <vehicle id="1.0" x="10.70" y="498.35" angle="90.00" type="CarA" speed="5.33" pos="10.70" lane="1i_0" slope="0.00"/>
    </timestep>
    <timestep time="2.35">
        <vehicle id="1.0" x="10.97" y="498.35" angle="90.00" type="CarA" speed="5.46" pos="10.97" lane="1i_0" slope="0.00"/>
    </timestep>
    <timestep time="2.40">
        <vehicle id="1.0" x="11.25" y="498.35" angle="90.00" type="CarA" speed="5.59" pos="11.25" lane="1i_0" slope="0.00"/>
    </timestep>
    <timestep time="2.45">
        <vehicle id="1.0" x="11.53" y="498.35" angle="90.00" type="CarA" speed="5.72" pos="11.53" lane="1i_0" slope="0.00"/>
    </timestep>
    <timestep time="2.50">
        <vehicle id="1.0" x="11.83" y="498.35" angle="90.00" type="CarA" speed="5.85" pos="11.83" lane="1i_0" slope="0.00"/>
    </timestep>
    <timestep time="2.55">
        <vehicle id="1.0" x="12.13" y="498.35" angle="90.00" type="CarA" speed="5.98" pos="12.13" lane="1i_0" slope="0.00"/>
    </timestep>
    <timestep time="2.60">
        <vehicle id="1.0" x="12.43" y="498.35" angle="90.00" type="CarA" speed="6.11" pos="12.43" lane="1i_0" slope="0.00"/>
    </timestep>
    <timestep time="2.65">
        <vehicle id="1.0" x="12.74" y="498.35" angle="90.00" type="CarA" speed="6.24" pos="12.74" lane="1i_0" slope="0.00"/>
    </timestep>
    <timestep time="2.70">
        <vehicle id="1.0" x="13.06" y="498.35" angle="90.00" type="CarA" speed="6.37" pos="13.06" lane="1i_0" slope="0.00"/>
    </timestep>
    <timestep time="2.75">
        <vehicle id="1.0" x="13.39" y="498.35" angle="90.00" type="CarA" speed="6.50" pos="13.39" lane="1i_0" slope="0.00"/>
    </timestep>
    <timestep time="2.80">
        <vehicle id="1.0" x="13.72" y="498.35" angle="90.00" type="CarA" speed="6.63" pos="13.72" lane="1i_0" slope="0.00"/>
    </timestep>
    <timestep time="2.85">
        <vehicle id="1.0" x="14.06" y="498.35" angle="90.00" type="CarA" speed="6.76" pos="14.06" lane="1i_0" slope="0.00"/>
    </timestep>
    <timestep time="2.90">
        <vehicle id="1.0" x="14.40" y="498.35" angle="90.00" type="CarA" speed="6.89" pos="14.40" lane="1i_0" slope="0.00"/>
        <vehicle id="2.0" x="5.10" y="498.35" angle="90.00" type="CarM" speed="0.00" pos="5.10" lane="1i_0" slope="0.00"/>
    </timestep>
    <timestep time="2.95">
        <vehicle id="1.0" x="14.75" y="498.35" angle="90.00" type="CarA" speed="7.02" pos="14.75" lane="1i_0" slope="0.00"/>
        <vehicle id="2.0" x="5.11" y="498.35" angle="90.00" type="CarM" speed="0.13" pos="5.11" lane="1i_0" slope="0.00"/>
    </timestep>
    <timestep time="3.00">
        <vehicle id="1.0" x="15.11" y="498.35" angle="90.00" type="CarA" speed="7.15" pos="15.11" lane="1i_0" slope="0.00"/>
        <vehicle id="2.0" x="5.12" y="498.35" angle="90.00" type="CarM" speed="0.26" pos="5.12" lane="1i_0" slope="0.00"/>
    </timestep>
    <timestep time="3.05">
        <vehicle id="1.0" x="15.47" y="498.35" angle="90.00" type="CarA" speed="7.28" pos="15.47" lane="1i_0" slope="0.00"/>
        <vehicle id="2.0" x="5.14" y="498.35" angle="90.00" type="CarM" speed="0.39" pos="5.14" lane="1i_0" slope="0.00"/>
    </timestep>
    <timestep time="3.10">
        <vehicle id="1.0" x="15.84" y="498.35" angle="90.00" type="CarA" speed="7.41" pos="15.84" lane="1i_0" slope="0.00"/>
        <vehicle id="2.0" x="5.16" y="498.35" angle="90.00" type="CarM" speed="0.52" pos="5.16" lane="1i_0" slope="0.00"/>
    </timestep>
    <timestep time="3.15">
        <vehicle id="1.0" x="16.22" y="498.35" angle="90.00" type="CarA" speed="7.54" pos="16.22" lane="1i_0" slope="0.00"/>
        <vehicle id="2.0" x="5.20" y="498.35" angle="90.00" type="CarM" speed="0.65" pos="5.20" lane="1i_0" slope="0.00"/>
    </timestep>
    <timestep time="3.20">
        <vehicle id="1.0" x="16.60" y="498.35" angle="90.00" type="CarA" speed="7.67" pos="16.60" lane="1i_0" slope="0.00"/>
        <vehicle id="2.0" x="5.24" y="498.35" angle="90.00" type="CarM" speed="0.78" pos="5.24" lane="1i_0" slope="0.00"/>
    </timestep>
    <timestep time="3.25">
        <vehicle id="1.0" x="16.99" y="498.35" angle="90.00" type="CarA" speed="7.80" pos="16.99" lane="1i_0" slope="0.00"/>
        <vehicle id="2.0" x="5.28" y="498.35" angle="90.00" type="CarM" speed="0.91" pos="5.28" lane="1i_0" slope="0.00"/>
    </timestep>
    <timestep time="3.30">
        <vehicle id="1.0" x="17.39" y="498.35" angle="90.00" type="CarA" speed="7.93" pos="17.39" lane="1i_0" slope="0.00"/>
        <vehicle id="2.0" x="5.33" y="498.35" angle="90.00" type="CarM" speed="1.04" pos="5.33" lane="1i_0" slope="0.00"/>
    </timestep>
    <timestep time="3.35">
        <vehicle id="1.0" x="17.79" y="498.35" angle="90.00" type="CarA" speed="8.06" pos="17.79" lane="1i_0" slope="0.00"/>
        <vehicle id="2.0" x="5.39" y="498.35" angle="90.00" type="CarM" speed="1.17" pos="5.39" lane="1i_0" slope="0.00"/>
    </timestep>
    <timestep time="3.40">
        <vehicle id="1.0" x="18.20" y="498.35" angle="90.00" type="CarA" speed="8.19" pos="18.20" lane="1i_0" slope="0.00"/>
        <vehicle id="2.0" x="5.46" y="498.35" angle="90.00" type="CarM" speed="1.30" pos="5.46" lane="1i_0" slope="0.00"/>
    </timestep>
    <timestep time="3.45">
        <vehicle id="1.0" x="18.62" y="498.35" angle="90.00" type="CarA" speed="8.32" pos="18.62" lane="1i_0" slope="0.00"/>
        <vehicle id="2.0" x="5.53" y="498.35" angle="90.00" type="CarM" speed="1.43" pos="5.53" lane="1i_0" slope="0.00"/>
    </timestep>
    <timestep time="3.50">
        <vehicle id="1.0" x="19.04" y="498.35" angle="90.00" type="CarA" speed="8.45" pos="19.04" lane="1i_0" slope="0.00"/>
        <vehicle id="2.0" x="5.61" y="498.35" angle="90.00" type="CarM" speed="1.56" pos="5.61" lane="1i_0" slope="0.00"/>
    </timestep>
    <timestep time="3.55">
        <vehicle id="1.0" x="19.47" y="498.35" angle="90.00" type="CarA" speed="8.58" pos="19.47" lane="1i_0" slope="0.00"/>
        <vehicle id="2.0" x="5.69" y="498.35" angle="90.00" type="CarM" speed="1.69" pos="5.69" lane="1i_0" slope="0.00"/>
    </timestep>
    <timestep time="3.60">
        <vehicle id="1.0" x="19.91" y="498.35" angle="90.00" type="CarA" speed="8.71" pos="19.91" lane="1i_0" slope="0.00"/>
        <vehicle id="2.0" x="5.78" y="498.35" angle="90.00" type="CarM" speed="1.82" pos="5.78" lane="1i_0" slope="0.00"/>
    </timestep>
    <timestep time="3.65">
        <vehicle id="1.0" x="20.35" y="498.35" angle="90.00" type="CarA" speed="8.84" pos="20.35" lane="1i_0" slope="0.00"/>
        <vehicle id="2.0" x="5.88" y="498.35" angle="90.00" type="CarM" speed="1.95" pos="5.88" lane="1i_0" slope="0.00"/>
    </timestep>
    <timestep time="3.70">
        <vehicle id="1.0" x="20.80" y="498.35" angle="90.00" type="CarA" speed="8.97" pos="20.80" lane="1i_0" slope="0.00"/>
        <vehicle id="2.0" x="5.98" y="498.35" angle="90.00" type="CarM" speed="2.08" pos="5.98" lane="1i_0" slope="0.00"/>
    </timestep>
    <timestep time="3.75">
        <vehicle id="1.0" x="21.25" y="498.35" angle="90.00" type="CarA" speed="9.10" pos="21.25" lane="1i_0" slope="0.00"/>
        <vehicle id="2.0" x="6.09" y="498.35" angle="90.00" type="CarM" speed="2.21" pos="6.09" lane="1i_0" slope="0.00"/>
    </timestep>
    <timestep time="3.80">
        <vehicle id="1.0" x="21.71" y="498.35" angle="90.00" type="CarA" speed="9.23" pos="21.71" lane="1i_0" slope="0.00"/>
        <vehicle id="2.0" x="6.21" y="498.35" angle="90.00" type="CarM" speed="2.34" pos="6.21" lane="1i_0" slope="0.00"/>
    </timestep>
    <timestep time="3.85">
        <vehicle id="1.0" x="22.18" y="498.35" angle="90.00" type="CarA" speed="9.36" pos="22.18" lane="1i_0" slope="0.00"/>
        <vehicle id="2.0" x="6.34" y="498.35" angle="90.00" type="CarM" speed="2.47" pos="6.34" lane="1i_0" slope="0.00"/>
    </timestep>
    <timestep time="3.90">
        <vehicle id="1.0" x="22.66" y="498.35" angle="90.00" type="CarA" speed="9.49" pos="22.66" lane="1i_0" slope="0.00"/>
        <vehicle id="2.0" x="6.46" y="498.35" angle="90.00" type="CarM" speed="2.60" pos="6.46" lane="1i_0" slope="0.00"/>
    </timestep>
    <timestep time="3.95">
        <vehicle id="1.0" x="23.14" y="498.35" angle="90.00" type="CarA" speed="9.62" pos="23.14" lane="1i_0" slope="0.00"/>
        <vehicle id="2.0" x="6.60" y="498.35" angle="90.00" type="CarM" speed="2.73" pos="6.60" lane="1i_0" slope="0.00"/>
    </timestep>
    <timestep time="4.00">
        <vehicle id="1.0" x="23.62" y="498.35" angle="90.00" type="CarA" speed="9.75" pos="23.62" lane="1i_0" slope="0.00"/>
        <vehicle id="2.0" x="6.74" y="498.35" angle="90.00" type="CarM" speed="2.86" pos="6.74" lane="1i_0" slope="0.00"/>
    </timestep>
    <timestep time="4.05">
        <vehicle id="1.0" x="24.12" y="498.35" angle="90.00" type="CarA" speed="9.88" pos="24.12" lane="1i_0" slope="0.00"/>
        <vehicle id="2.0" x="6.89" y="498.35" angle="90.00" type="CarM" speed="2.99" pos="6.89" lane="1i_0" slope="0.00"/>
    </timestep>
    <timestep time="4.10">
        <vehicle id="1.0" x="24.62" y="498.35" angle="90.00" type="CarA" speed="10.01" pos="24.62" lane="1i_0" slope="0.00"/>
        <vehicle id="2.0" x="7.05" y="498.35" angle="90.00" type="CarM" speed="3.12" pos="7.05" lane="1i_0" slope="0.00"/>
    </timestep>
    <timestep time="4.15">
        <vehicle id="1.0" x="25.13" y="498.35" angle="90.00" type="CarA" speed="10.14" pos="25.13" lane="1i_0" slope="0.00"/>
        <vehicle id="2.0" x="7.21" y="498.35" angle="90.00" type="CarM" speed="3.25" pos="7.21" lane="1i_0" slope="0.00"/>
    </timestep>
    <timestep time="4.20">
        <vehicle id="1.0" x="25.64" y="498.35" angle="90.00" type="CarA" speed="10.27" pos="25.64" lane="1i_0" slope="0.00"/>
        <vehicle id="2.0" x="7.38" y="498.35" angle="90.00" type="CarM" speed="3.38" pos="7.38" lane="1i_0" slope="0.00"/>
    </timestep>
    <timestep time="4.25">
        <vehicle id="1.0" x="26.16" y="498.35" angle="90.00" type="CarA" speed="10.40" pos="26.16" lane="1i_0" slope="0.00"/>
        <vehicle id="2.0" x="7.56" y="498.35" angle="90.00" type="CarM" speed="3.51" pos="7.56" lane="1i_0" slope="0.00"/>
    </timestep>
    <timestep time="4.30">
        <vehicle id="1.0" x="26.69" y="498.35" angle="90.00" type="CarA" speed="10.53" pos="26.69" lane="1i_0" slope="0.00"/>
        <vehicle id="2.0" x="7.74" y="498.35" angle="90.00" type="CarM" speed="3.64" pos="7.74" lane="1i_0" slope="0.00"/>
    </timestep>
    <timestep time="4.35">
        <vehicle id="1.0" x="27.22" y="498.35" angle="90.00" type="CarA" speed="10.66" pos="27.22" lane="1i_0" slope="0.00"/>
        <vehicle id="2.0" x="7.93" y="498.35" angle="90.00" type="CarM" speed="3.77" pos="7.93" lane="1i_0" slope="0.00"/>
    </timestep>
    <timestep time="4.40">
        <vehicle id="1.0" x="27.76" y="498.35" angle="90.00" type="CarA" speed="10.79" pos="27.76" lane="1i_0" slope="0.00"/>
        <vehicle id="2.0" x="8.12" y="498.35" angle="90.00" type="CarM" speed="3.90" pos="8.12" lane="1i_0" slope="0.00"/>
    </timestep>
    <timestep time="4.45">
        <vehicle id="1.0" x="28.30" y="498.35" angle="90.00" type="CarA" speed="10.92" pos="28.30" lane="1i_0" slope="0.00"/>
        <vehicle id="2.0" x="8.32" y="498.35" angle="90.00" type="CarM" speed="4.03" pos="8.32" lane="1i_0" slope="0.00"/>
    </timestep>
    <timestep time="4.50">
        <vehicle id="1.0" x="28.86" y="498.35" angle="90.00" type="CarA" speed="11.05" pos="28.86" lane="1i_0" slope="0.00"/>
        <vehicle id="2.0" x="8.53" y="498.35" angle="90.00" type="CarM" speed="4.16" pos="8.53" lane="1i_0" slope="0.00"/>
    </timestep>
    <timestep time="4.55">
        <vehicle id="1.0" x="29.42" y="498.35" angle="90.00" type="CarA" speed="11.18" pos="29.42" lane="1i_0" slope="0.00"/>
        <vehicle id="2.0" x="8.75" y="498.35" angle="90.00" type="CarM" speed="4.29" pos="8.75" lane="1i_0" slope="0.00"/>
    </timestep>
    <timestep time="4.60">
        <vehicle id="1.0" x="29.98" y="498.35" angle="90.00" type="CarA" speed="11.31" pos="29.98" lane="1i_0" slope="0.00"/>
        <vehicle id="2.0" x="8.97" y="498.35" angle="90.00" type="CarM" speed="4.42" pos="8.97" lane="1i_0" slope="0.00"/>
    </timestep>
    <timestep time="4.65">
        <vehicle id="1.0" x="30.55" y="498.35" angle="90.00" type="CarA" speed="11.44" pos="30.55" lane="1i_0" slope="0.00"/>
        <vehicle id="2.0" x="9.19" y="498.35" angle="90.00" type="CarM" speed="4.55" pos="9.19" lane="1i_0" slope="0.00"/>
    </timestep>
    <timestep time="4.70">
        <vehicle id="1.0" x="31.13" y="498.35" angle="90.00" type="CarA" speed="11.57" pos="31.13" lane="1i_0" slope="0.00"/>
        <vehicle id="2.0" x="9.43" y="498.35" angle="90.00" type="CarM" speed="4.68" pos="9.43" lane="1i_0" slope="0.00"/>
    </timestep>
    <timestep time="4.75">
        <vehicle id="1.0" x="31.72" y="498.35" angle="90.00" type="CarA" speed="11.70" pos="31.72" lane="1i_0" slope="0.00"/>
        <vehicle id="2.0" x="9.67" y="498.35" angle="90.00" type="CarM" speed="4.81" pos="9.67" lane="1i_0" slope="0.00"/>
    </timestep>
    <timestep time="4.80">
        <vehicle id="1.0" x="32.31" y="498.35" angle="90.00" type="CarA" speed="11.83" pos="32.31" lane="1i_0" slope="0.00"/>
        <vehicle id="2.0" x="9.92" y="498.35" angle="90.00" type="CarM" speed="4.94" pos="9.92" lane="1i_0" slope="0.00"/>
    </timestep>
    <timestep time="4.85">
        <vehicle id="1.0" x="32.91" y="498.35" angle="90.00" type="CarA" speed="11.96" pos="32.91" lane="1i_0" slope="0.00"/>
        <vehicle id="2.0" x="10.17" y="498.35" angle="90.00" type="CarM" speed="5.07" pos="10.17" lane="1i_0" slope="0.00"/>
    </timestep>
    <timestep time="4.90">
        <vehicle id="1.0" x="33.51" y="498.35" angle="90.00" type="CarA" speed="12.09" pos="33.51" lane="1i_0" slope="0.00"/>
        <vehicle id="2.0" x="10.43" y="498.35" angle="90.00" type="CarM" speed="5.20" pos="10.43" lane="1i_0" slope="0.00"/>
    </timestep>
    <timestep time="4.95">
        <vehicle id="1.0" x="34.12" y="498.35" angle="90.00" type="CarA" speed="12.22" pos="34.12" lane="1i_0" slope="0.00"/>
        <vehicle id="2.0" x="10.70" y="498.35" angle="90.00" type="CarM" speed="5.33" pos="10.70" lane="1i_0" slope="0.00"/>
    </timestep>
    <timestep time="5.00">
        <vehicle id="1.0" x="34.74" y="498.35" angle="90.00" type="CarA" speed="12.35" pos="34.74" lane="1i_0" slope="0.00"/>
        <vehicle id="2.0" x="10.97" y="498.35" angle="90.00" type="CarM" speed="5.46" pos="10.97" lane="1i_0" slope="0.00"/>
    </timestep>
    <timestep time="5.05">
        <vehicle id="1.0" x="35.36" y="498.35" angle="90.00" type="CarA" speed="12.48" pos="35.36" lane="1i_0" slope="0.00"/>
        <vehicle id="2.0" x="11.25" y="498.35" angle="90.00" type="CarM" speed="5.59" pos="11.25" lane="1i_0" slope="0.00"/>
    </timestep>
    <timestep time="5.10">
        <vehicle id="1.0" x="35.99" y="498.35" angle="90.00" type="CarA" speed="12.61" pos="35.99" lane="1i_0" slope="0.00"/>
        <vehicle id="2.0" x="11.53" y="498.35" angle="90.00" type="CarM" speed="5.72" pos="11.53" lane="1i_0" slope="0.00"/>
    </timestep>
    <timestep time="5.15">
        <vehicle id="1.0" x="36.63" y="498.35" angle="90.00" type="CarA" speed="12.74" pos="36.63" lane="1i_0" slope="0.00"/>
        <vehicle id="2.0" x="11.83" y="498.35" angle="90.00" type="CarM" speed="5.85" pos="11.83" lane="1i_0" slope="0.00"/>
    </timestep>
    <timestep time="5.20">
        <vehicle id="1.0" x="37.28" y="498.35" angle="90.00" type="CarA" speed="12.87" pos="37.28" lane="1i_0" slope="0.00"/>
        <vehicle id="2.0" x="12.13" y="498.35" angle="90.00" type="CarM" speed="5.98" pos="12.13" lane="1i_0" slope="0.00"/>
    </timestep>
    <timestep time="5.25">
        <vehicle id="1.0" x="37.93" y="498.35" angle="90.00" type="CarA" speed="13.00" pos="37.93" lane="1i_0" slope="0.00"/>
        <vehicle id="2.0" x="12.43" y="498.35" angle="90.00" type="CarM" speed="6.11" pos="12.43" lane="1i_0" slope="0.00"/>
    </timestep>
    <timestep time="5.30">
        <vehicle id="1.0" x="38.58" y="498.35" angle="90.00" type="CarA" speed="13.13" pos="38.58" lane="1i_0" slope="0.00"/>
        <vehicle id="2.0" x="12.74" y="498.35" angle="90.00" type="CarM" speed="6.24" pos="12.74" lane="1i_0" slope="0.00"/>
    </timestep>
    <timestep time="5.35">
        <vehicle id="1.0" x="39.24" y="498.35" angle="90.00" type="CarA" speed="13.26" pos="39.24" lane="1i_0" slope="0.00"/>
        <vehicle id="2.0" x="13.06" y="498.35" angle="90.00" type="CarM" speed="6.37" pos="13.06" lane="1i_0" slope="0.00"/>
    </timestep>
    <timestep time="5.40">
        <vehicle id="1.0" x="39.91" y="498.35" angle="90.00" type="CarA" speed="13.39" pos="39.91" lane="1i_0" slope="0.00"/>
        <vehicle id="2.0" x="13.39" y="498.35" angle="90.00" type="CarM" speed="6.50" pos="13.39" lane="1i_0" slope="0.00"/>
    </timestep>
    <timestep time="5.45">
        <vehicle id="1.0" x="40.59" y="498.35" angle="90.00" type="CarA" speed="13.52" pos="40.59" lane="1i_0" slope="0.00"/>
        <vehicle id="2.0" x="13.72" y="498.35" angle="90.00" type="CarM" speed="6.63" pos="13.72" lane="1i_0" slope="0.00"/>
    </timestep>
    <timestep time="5.50">
        <vehicle id="1.0" x="41.27" y="498.35" angle="90.00" type="CarA" speed="13.65" pos="41.27" lane="1i_0" slope="0.00"/>
        <vehicle id="2.0" x="14.06" y="498.35" angle="90.00" type="CarM" speed="6.76" pos="14.06" lane="1i_0" slope="0.00"/>
    </timestep>
    <timestep time="5.55">
        <vehicle id="1.0" x="41.96" y="498.35" angle="90.00" type="CarA" speed="13.78" pos="41.96" lane="1i_0" slope="0.00"/>
        <vehicle id="2.0" x="14.40" y="498.35" angle="90.00" type="CarM" speed="6.89" pos="14.40" lane="1i_0" slope="0.00"/>
        <vehicle id="2.1" x="5.10" y="498.35" angle="90.00" type="CarM" speed="0.00" pos="5.10" lane="1i_0" slope="0.00"/>
    </timestep>
    <timestep time="5.60">
        <vehicle id="1.0" x="42.66" y="498.35" angle="90.00" type="CarA" speed="13.91" pos="42.66" lane="1i_0" slope="0.00"/>
        <vehicle id="2.0" x="14.75" y="498.35" angle="90.00" type="CarM" speed="7.02" pos="14.75" lane="1i_0" slope="0.00"/>
        <vehicle id="2.1" x="5.11" y="498.35" angle="90.00" type="CarM" speed="0.13" pos="5.11" lane="1i_0" slope="0.00"/>
    </timestep>
    <timestep time="5.65">
        <vehicle id="1.0" x="43.36" y="498.35" angle="90.00" type="CarA" speed="14.04" pos="43.36" lane="1i_0" slope="0.00"/>
        <vehicle id="2.0" x="15.11" y="498.35" angle="90.00" type="CarM" speed="7.15" pos="15.11" lane="1i_0" slope="0.00"/>
        <vehicle id="2.1" x="5.12" y="498.35" angle="90.00" type="CarM" speed="0.26" pos="5.12" lane="1i_0" slope="0.00"/>
    </timestep>
    <timestep time="5.70">
        <vehicle id="1.0" x="44.07" y="498.35" angle="90.00" type="CarA" speed="14.17" pos="44.07" lane="1i_0" slope="0.00"/>
        <vehicle id="2.0" x="15.47" y="498.35" angle="90.00" type="CarM" speed="7.28" pos="15.47" lane="1i_0" slope="0.00"/>
        <vehicle id="2.1" x="5.14" y="498.35" angle="90.00" type="CarM" speed="0.39" pos="5.14" lane="1i_0" slope="0.00"/>
    </timestep>
    <timestep time="5.75">
        <vehicle id="1.0" x="44.78" y="498.35" angle="90.00" type="CarA" speed="14.30" pos="44.78" lane="1i_0" slope="0.00"/>
        <vehicle id="2.0" x="15.84" y="498.35" angle="90.00" type="CarM" speed="7.41" pos="15.84" lane="1i_0" slope="0.00"/>
        <vehicle id="2.1" x="5.16" y="498.35" angle="90.00" type="CarM" speed="0.52" pos="5.16" lane="1i_0" slope="0.00"/>
    </timestep>
    <timestep time="5.80">
        <vehicle id="1.0" x="45.50" y="498.35" angle="90.00" type="CarA" speed="14.43" pos="45.50" lane="1i_0" slope="0.00"/>
        <vehicle id="2.0" x="16.22" y="498.35" angle="90.00" type="CarM" speed="7.54" pos="16.22" lane="1i_0" slope="0.00"/>
        <vehicle id="2.1" x="5.20" y="498.35" angle="90.00" type="CarM" speed="0.65" pos="5.20" lane="1i_0" slope="0.00"/>
    </timestep>
    <timestep time="5.85">
        <vehicle id="1.0" x="46.23" y="498.35" angle="90.00" type="CarA" speed="14.56" pos="46.23" lane="1i_0" slope="0.00"/>
        <vehicle id="2.0" x="16.60" y="498.35" angle="90.00" type="CarM" speed="7.67" pos="16.60" lane="1i_0" slope="0.00"/>
        <vehicle id="2.1" x="5.24" y="498.35" angle="90.00" type="CarM" speed="0.78" pos="5.24" lane="1i_0" slope="0.00"/>
    </timestep>
    <timestep time="5.90">
        <vehicle id="1.0" x="46.97" y="498.35" angle="90.00" type="CarA" speed="14.69" pos="46.97" lane="1i_0" slope="0.00"/>
        <vehicle id="2.0" x="16.99" y="498.35" angle="90.00" type="CarM" speed="7.80" pos="16.99" lane="1i_0" slope="0.00"/>
        <vehicle id="2.1" x="5.28" y="498.35" angle="90.00" type="CarM" speed="0.91" pos="5.28" lane="1i_0" slope="0.00"/>
    </timestep>
    <timestep time="5.95">
        <vehicle id="1.0" x="47.71" y="498.35" angle="90.00" type="CarA" speed="14.82" pos="47.71" lane="1i_0" slope="0.00"/>
        <vehicle id="2.0" x="17.39" y="498.35" angle="90.00" type="CarM" speed="7.93" pos="17.39" lane="1i_0" slope="0.00"/>
        <vehicle id="2.1" x="5.33" y="498.35" angle="90.00" type="CarM" speed="1.04" pos="5.33" lane="1i_0" slope="0.00"/>
    </timestep>
    <timestep time="6.00">