<?xml version="1.0" encoding="UTF-8"?>

<!-- generated on 06/17/16 00:22:06 by SUMO Version 0.25.0
<?xml version="1.0" encoding="UTF-8"?>

<configuration xmlns:xsi="http://www.w3.org/2001/XMLSchema-instance" xsi:noNamespaceSchemaLocation="http://sumo.dlr.de/xsd/sumoConfiguration.xsd">

    <input>
        <net-file value="huntcol_network/huntcol.net.xml"/>
        <route-files value="huntcol_network/huntcolSaturatedACC.rou.xml"/>
        <additional-files value="huntcol_network/huntcol.det.xml,huntcol_network/vtypeprobe.xml"/>
    </input>

    <output>
        <save-state.prefix value="huntcol_network/state"/>
    </output>

    <time>
        <begin value="0"/>
        <end value="3600"/>
        <step-length value="0.1"/>
    </time>

    <processing>
        <time-to-teleport value="-1"/>
    </processing>

    <emissions>
        <phemlight-path value="huntcol_network/./PHEMlight/"/>
    </emissions>

    <traci_server>
        <remote-port value="8873"/>
    </traci_server>

</configuration>
-->

<detector xmlns:xsi="http://www.w3.org/2001/XMLSchema-instance" xsi:noNamespaceSchemaLocation="http://sumo.dlr.de/xsd/det_e1_file.xsd">
   <interval begin="0.00" end="1.00" id="sensor" nVehContrib="0" flow="0.00" occupancy="0.00" speed="-1.00" length="-1.00" nVehEntered="0"/>
   <interval begin="1.00" end="2.00" id="sensor" nVehContrib="0" flow="0.00" occupancy="0.00" speed="-1.00" length="-1.00" nVehEntered="0"/>
   <interval begin="2.00" end="3.00" id="sensor" nVehContrib="0" flow="0.00" occupancy="0.00" speed="-1.00" length="-1.00" nVehEntered="0"/>
   <interval begin="3.00" end="4.00" id="sensor" nVehContrib="0" flow="0.00" occupancy="0.00" speed="-1.00" length="-1.00" nVehEntered="0"/>
   <interval begin="4.00" end="5.00" id="sensor" nVehContrib="0" flow="0.00" occupancy="0.00" speed="-1.00" length="-1.00" nVehEntered="0"/>
   <interval begin="5.00" end="6.00" id="sensor" nVehContrib="0" flow="0.00" occupancy="0.00" speed="-1.00" length="-1.00" nVehEntered="0"/>
   <interval begin="6.00" end="7.00" id="sensor" nVehContrib="0" flow="0.00" occupancy="0.00" speed="-1.00" length="-1.00" nVehEntered="0"/>
   <interval begin="7.00" end="8.00" id="sensor" nVehContrib="0" flow="0.00" occupancy="0.00" speed="-1.00" length="-1.00" nVehEntered="0"/>
   <interval begin="8.00" end="9.00" id="sensor" nVehContrib="0" flow="0.00" occupancy="0.00" speed="-1.00" length="-1.00" nVehEntered="0"/>
   <interval begin="9.00" end="10.00" id="sensor" nVehContrib="0" flow="0.00" occupancy="0.00" speed="-1.00" length="-1.00" nVehEntered="0"/>
   <interval begin="10.00" end="11.00" id="sensor" nVehContrib="0" flow="0.00" occupancy="0.00" speed="-1.00" length="-1.00" nVehEntered="0"/>
   <interval begin="11.00" end="12.00" id="sensor" nVehContrib="0" flow="0.00" occupancy="0.00" speed="-1.00" length="-1.00" nVehEntered="0"/>
   <interval begin="12.00" end="13.00" id="sensor" nVehContrib="0" flow="0.00" occupancy="0.00" speed="-1.00" length="-1.00" nVehEntered="0"/>
   <interval begin="13.00" end="14.00" id="sensor" nVehContrib="0" flow="0.00" occupancy="0.00" speed="-1.00" length="-1.00" nVehEntered="0"/>
   <interval begin="14.00" end="15.00" id="sensor" nVehContrib="0" flow="0.00" occupancy="0.00" speed="-1.00" length="-1.00" nVehEntered="0"/>
   <interval begin="15.00" end="16.00" id="sensor" nVehContrib="0" flow="0.00" occupancy="0.00" speed="-1.00" length="-1.00" nVehEntered="0"/>
   <interval begin="16.00" end="17.00" id="sensor" nVehContrib="0" flow="0.00" occupancy="0.00" speed="-1.00" length="-1.00" nVehEntered="0"/>
   <interval begin="17.00" end="18.00" id="sensor" nVehContrib="0" flow="0.00" occupancy="0.00" speed="-1.00" length="-1.00" nVehEntered="0"/>
   <interval begin="18.00" end="19.00" id="sensor" nVehContrib="0" flow="0.00" occupancy="0.00" speed="-1.00" length="-1.00" nVehEntered="0"/>
   <interval begin="19.00" end="20.00" id="sensor" nVehContrib="0" flow="0.00" occupancy="0.00" speed="-1.00" length="-1.00" nVehEntered="0"/>
   <interval begin="20.00" end="21.00" id="sensor" nVehContrib="0" flow="0.00" occupancy="0.00" speed="-1.00" length="-1.00" nVehEntered="0"/>
   <interval begin="21.00" end="22.00" id="sensor" nVehContrib="0" flow="0.00" occupancy="0.00" speed="-1.00" length="-1.00" nVehEntered="0"/>
   <interval begin="22.00" end="23.00" id="sensor" nVehContrib="0" flow="0.00" occupancy="0.00" speed="-1.00" length="-1.00" nVehEntered="0"/>
   <interval begin="23.00" end="24.00" id="sensor" nVehContrib="0" flow="0.00" occupancy="0.00" speed="-1.00" length="-1.00" nVehEntered="0"/>
   <interval begin="24.00" end="25.00" id="sensor" nVehContrib="0" flow="0.00" occupancy="0.00" speed="-1.00" length="-1.00" nVehEntered="0"/>
   <interval begin="25.00" end="26.00" id="sensor" nVehContrib="0" flow="0.00" occupancy="0.00" speed="-1.00" length="-1.00" nVehEntered="0"/>
   <interval begin="26.00" end="27.00" id="sensor" nVehContrib="0" flow="0.00" occupancy="0.00" speed="-1.00" length="-1.00" nVehEntered="0"/>
   <interval begin="27.00" end="28.00" id="sensor" nVehContrib="0" flow="0.00" occupancy="0.00" speed="-1.00" length="-1.00" nVehEntered="0"/>
   <interval begin="28.00" end="29.00" id="sensor" nVehContrib="0" flow="0.00" occupancy="0.00" speed="-1.00" length="-1.00" nVehEntered="0"/>
   <interval begin="29.00" end="30.00" id="sensor" nVehContrib="0" flow="0.00" occupancy="0.00" speed="-1.00" length="-1.00" nVehEntered="0"/>
   <interval begin="30.00" end="31.00" id="sensor" nVehContrib="0" flow="0.00" occupancy="0.00" speed="-1.00" length="-1.00" nVehEntered="0"/>
   <interval begin="31.00" end="32.00" id="sensor" nVehContrib="0" flow="0.00" occupancy="0.00" speed="-1.00" length="-1.00" nVehEntered="0"/>
   <interval begin="32.00" end="33.00" id="sensor" nVehContrib="0" flow="0.00" occupancy="0.00" speed="-1.00" length="-1.00" nVehEntered="0"/>
   <interval begin="33.00" end="34.00" id="sensor" nVehContrib="0" flow="0.00" occupancy="0.00" speed="-1.00" length="-1.00" nVehEntered="0"/>
   <interval begin="34.00" end="35.00" id="sensor" nVehContrib="0" flow="0.00" occupancy="0.00" speed="-1.00" length="-1.00" nVehEntered="0"/>
   <interval begin="35.00" end="36.00" id="sensor" nVehContrib="0" flow="0.00" occupancy="0.00" speed="-1.00" length="-1.00" nVehEntered="0"/>
   <interval begin="36.00" end="37.00" id="sensor" nVehContrib="0" flow="0.00" occupancy="0.00" speed="-1.00" length="-1.00" nVehEntered="0"/>
   <interval begin="37.00" end="38.00" id="sensor" nVehContrib="0" flow="0.00" occupancy="0.00" speed="-1.00" length="-1.00" nVehEntered="0"/>
   <interval begin="38.00" end="39.00" id="sensor" nVehContrib="0" flow="0.00" occupancy="0.00" speed="-1.00" length="-1.00" nVehEntered="0"/>
   <interval begin="39.00" end="40.00" id="sensor" nVehContrib="0" flow="0.00" occupancy="0.00" speed="-1.00" length="-1.00" nVehEntered="0"/>
   <interval begin="40.00" end="41.00" id="sensor" nVehContrib="0" flow="0.00" occupancy="0.00" speed="-1.00" length="-1.00" nVehEntered="0"/>
   <interval begin="41.00" end="42.00" id="sensor" nVehContrib="0" flow="0.00" occupancy="0.00" speed="-1.00" length="-1.00" nVehEntered="0"/>
   <interval begin="42.00" end="43.00" id="sensor" nVehContrib="0" flow="0.00" occupancy="0.00" speed="-1.00" length="-1.00" nVehEntered="0"/>
   <interval begin="43.00" end="44.00" id="sensor" nVehContrib="0" flow="0.00" occupancy="0.00" speed="-1.00" length="-1.00" nVehEntered="0"/>
   <interval begin="44.00" end="45.00" id="sensor" nVehContrib="0" flow="0.00" occupancy="0.00" speed="-1.00" length="-1.00" nVehEntered="0"/>
   <interval begin="45.00" end="46.00" id="sensor" nVehContrib="0" flow="0.00" occupancy="0.00" speed="-1.00" length="-1.00" nVehEntered="0"/>
   <interval begin="46.00" end="47.00" id="sensor" nVehContrib="0" flow="0.00" occupancy="0.00" speed="-1.00" length="-1.00" nVehEntered="0"/>
   <interval begin="47.00" end="48.00" id="sensor" nVehContrib="0" flow="0.00" occupancy="0.00" speed="-1.00" length="-1.00" nVehEntered="0"/>
   <interval begin="48.00" end="49.00" id="sensor" nVehContrib="0" flow="0.00" occupancy="0.00" speed="-1.00" length="-1.00" nVehEntered="0"/>
   <interval begin="49.00" end="50.00" id="sensor" nVehContrib="0" flow="0.00" occupancy="0.00" speed="-1.00" length="-1.00" nVehEntered="0"/>
   <interval begin="50.00" end="51.00" id="sensor" nVehContrib="0" flow="0.00" occupancy="0.00" speed="-1.00" length="-1.00" nVehEntered="0"/>
   <interval begin="51.00" end="52.00" id="sensor" nVehContrib="0" flow="0.00" occupancy="0.00" speed="-1.00" length="-1.00" nVehEntered="0"/>
   <interval begin="52.00" end="53.00" id="sensor" nVehContrib="0" flow="0.00" occupancy="0.00" speed="-1.00" length="-1.00" nVehEntered="0"/>
   <interval begin="53.00" end="54.00" id="sensor" nVehContrib="1" flow="3600.00" occupancy="16.67" speed="30.00" length="5.00" nVehEntered="1"/>
   <interval begin="54.00" end="55.00" id="sensor" nVehContrib="1" flow="3600.00" occupancy="16.67" speed="30.00" length="5.00" nVehEntered="1"/>
   <interval begin="55.00" end="56.00" id="sensor" nVehContrib="0" flow="0.00" occupancy="12.20" speed="-1.00" length="-1.00" nVehEntered="0"/>
   <interval begin="56.00" end="57.00" id="sensor" nVehContrib="1" flow="3600.00" occupancy="4.47" speed="30.00" length="5.00" nVehEntered="1"/>
   <interval begin="57.00" end="58.00" id="sensor" nVehContrib="1" flow="3600.00" occupancy="16.67" speed="30.00" length="5.00" nVehEntered="1"/>
   <interval begin="58.00" end="59.00" id="sensor" nVehContrib="1" flow="3600.00" occupancy="16.67" speed="30.00" length="5.00" nVehEntered="1"/>
   <interval begin="59.00" end="60.00" id="sensor" nVehContrib="1" flow="3600.00" occupancy="16.67" speed="30.00" length="5.00" nVehEntered="1"/>
   <interval begin="60.00" end="61.00" id="sensor" nVehContrib="1" flow="3600.00" occupancy="16.67" speed="30.00" length="5.00" nVehEntered="1"/>
   <interval begin="61.00" end="62.00" id="sensor" nVehContrib="0" flow="0.00" occupancy="12.20" speed="-1.00" length="-1.00" nVehEntered="0"/>
   <interval begin="62.00" end="63.00" id="sensor" nVehContrib="1" flow="3600.00" occupancy="4.47" speed="30.00" length="5.00" nVehEntered="1"/>
   <interval begin="63.00" end="64.00" id="sensor" nVehContrib="1" flow="3600.00" occupancy="16.67" speed="30.00" length="5.00" nVehEntered="1"/>
   <interval begin="64.00" end="65.00" id="sensor" nVehContrib="1" flow="3600.00" occupancy="16.67" speed="30.00" length="5.00" nVehEntered="1"/>
   <interval begin="65.00" end="66.00" id="sensor" nVehContrib="1" flow="3600.00" occupancy="16.67" speed="30.00" length="5.00" nVehEntered="1"/>
   <interval begin="66.00" end="67.00" id="sensor" nVehContrib="1" flow="3600.00" occupancy="16.67" speed="30.00" length="5.00" nVehEntered="1"/>
   <interval begin="67.00" end="68.00" id="sensor" nVehContrib="0" flow="0.00" occupancy="12.20" speed="-1.00" length="-1.00" nVehEntered="0"/>
   <interval begin="68.00" end="69.00" id="sensor" nVehContrib="1" flow="3600.00" occupancy="4.47" speed="30.00" length="5.00" nVehEntered="1"/>
   <interval begin="69.00" end="70.00" id="sensor" nVehContrib="1" flow="3600.00" occupancy="16.67" speed="30.00" length="5.00" nVehEntered="1"/>
   <interval begin="70.00" end="71.00" id="sensor" nVehContrib="1" flow="3600.00" occupancy="16.67" speed="30.00" length="5.00" nVehEntered="1"/>
   <interval begin="71.00" end="72.00" id="sensor" nVehContrib="1" flow="3600.00" occupancy="16.67" speed="30.00" length="5.00" nVehEntered="1"/>
   <interval begin="72.00" end="73.00" id="sensor" nVehContrib="1" flow="3600.00" occupancy="16.67" speed="30.00" length="5.00" nVehEntered="1"/>
   <interval begin="73.00" end="74.00" id="sensor" nVehContrib="0" flow="0.00" occupancy="12.20" speed="-1.00" length="-1.00" nVehEntered="0"/>
   <interval begin="74.00" end="75.00" id="sensor" nVehContrib="1" flow="3600.00" occupancy="4.47" speed="30.00" length="5.00" nVehEntered="1"/>
   <interval begin="75.00" end="76.00" id="sensor" nVehContrib="1" flow="3600.00" occupancy="16.67" speed="30.00" length="5.00" nVehEntered="1"/>
   <interval begin="76.00" end="77.00" id="sensor" nVehContrib="1" flow="3600.00" occupancy="16.67" speed="30.00" length="5.00" nVehEntered="1"/>
   <interval begin="77.00" end="78.00" id="sensor" nVehContrib="1" flow="3600.00" occupancy="16.67" speed="30.00" length="5.00" nVehEntered="1"/>
   <interval begin="78.00" end="79.00" id="sensor" nVehContrib="1" flow="3600.00" occupancy="16.67" speed="30.00" length="5.00" nVehEntered="1"/>
   <interval begin="79.00" end="80.00" id="sensor" nVehContrib="0" flow="0.00" occupancy="12.20" speed="-1.00" length="-1.00" nVehEntered="0"/>
   <interval begin="80.00" end="81.00" id="sensor" nVehContrib="1" flow="3600.00" occupancy="4.47" speed="30.00" length="5.00" nVehEntered="1"/>
   <interval begin="81.00" end="82.00" id="sensor" nVehContrib="1" flow="3600.00" occupancy="16.67" speed="30.00" length="5.00" nVehEntered="1"/>
   <interval begin="82.00" end="83.00" id="sensor" nVehContrib="1" flow="3600.00" occupancy="16.67" speed="30.00" length="5.00" nVehEntered="1"/>
   <interval begin="83.00" end="84.00" id="sensor" nVehContrib="1" flow="3600.00" occupancy="16.67" speed="30.00" length="5.00" nVehEntered="1"/>
   <interval begin="84.00" end="85.00" id="sensor" nVehContrib="1" flow="3600.00" occupancy="16.67" speed="30.00" length="5.00" nVehEntered="1"/>
   <interval begin="85.00" end="86.00" id="sensor" nVehContrib="0" flow="0.00" occupancy="12.20" speed="-1.00" length="-1.00" nVehEntered="0"/>
   <interval begin="86.00" end="87.00" id="sensor" nVehContrib="1" flow="3600.00" occupancy="4.47" speed="30.00" length="5.00" nVehEntered="1"/>
   <interval begin="87.00" end="88.00" id="sensor" nVehContrib="1" flow="3600.00" occupancy="16.67" speed="30.00" length="5.00" nVehEntered="1"/>
   <interval begin="88.00" end="89.00" id="sensor" nVehContrib="1" flow="3600.00" occupancy="16.67" speed="30.00" length="5.00" nVehEntered="1"/>
   <interval begin="89.00" end="90.00" id="sensor" nVehContrib="1" flow="3600.00" occupancy="16.67" speed="30.00" length="5.00" nVehEntered="1"/>
   <interval begin="90.00" end="91.00" id="sensor" nVehContrib="1" flow="3600.00" occupancy="16.67" speed="30.00" length="5.00" nVehEntered="1"/>
   <interval begin="91.00" end="92.00" id="sensor" nVehContrib="0" flow="0.00" occupancy="12.20" speed="-1.00" length="-1.00" nVehEntered="0"/>
   <interval begin="92.00" end="93.00" id="sensor" nVehContrib="1" flow="3600.00" occupancy="4.47" speed="30.00" length="5.00" nVehEntered="1"/>
   <interval begin="93.00" end="94.00" id="sensor" nVehContrib="1" flow="3600.00" occupancy="16.67" speed="30.00" length="5.00" nVehEntered="1"/>
   <interval begin="94.00" end="95.00" id="sensor" nVehContrib="1" flow="3600.00" occupancy="16.67" speed="30.00" length="5.00" nVehEntered="1"/>
   <interval begin="95.00" end="96.00" id="sensor" nVehContrib="1" flow="3600.00" occupancy="16.67" speed="30.00" length="5.00" nVehEntered="1"/>
   <interval begin="96.00" end="97.00" id="sensor" nVehContrib="1" flow="3600.00" occupancy="16.67" speed="30.00" length="5.00" nVehEntered="1"/>
   <interval begin="97.00" end="98.00" id="sensor" nVehContrib="0" flow="0.00" occupancy="12.20" speed="-1.00" length="-1.00" nVehEntered="0"/>
   <interval begin="98.00" end="99.00" id="sensor" nVehContrib="1" flow="3600.00" occupancy="4.47" speed="30.00" length="5.00" nVehEntered="1"/>
   <interval begin="99.00" end="100.00" id="sensor" nVehContrib="1" flow="3600.00" occupancy="16.67" speed="30.00" length="5.00" nVehEntered="1"/>
   <interval begin="100.00" end="101.00" id="sensor" nVehContrib="1" flow="3600.00" occupancy="16.67" speed="30.00" length="5.00" nVehEntered="1"/>
   <interval begin="101.00" end="102.00" id="sensor" nVehContrib="1" flow="3600.00" occupancy="16.67" speed="30.00" length="5.00" nVehEntered="1"/>
   <interval begin="102.00" end="103.00" id="sensor" nVehContrib="1" flow="3600.00" occupancy="16.67" speed="30.00" length="5.00" nVehEntered="1"/>
   <interval begin="103.00" end="104.00" id="sensor" nVehContrib="0" flow="0.00" occupancy="12.20" speed="-1.00" length="-1.00" nVehEntered="0"/>
   <interval begin="104.00" end="105.00" id="sensor" nVehContrib="1" flow="3600.00" occupancy="4.47" speed="30.00" length="5.00" nVehEntered="1"/>
   <interval begin="105.00" end="106.00" id="sensor" nVehContrib="1" flow="3600.00" occupancy="16.67" speed="30.00" length="5.00" nVehEntered="1"/>
   <interval begin="106.00" end="107.00" id="sensor" nVehContrib="1" flow="3600.00" occupancy="16.67" speed="30.00" length="5.00" nVehEntered="1"/>
   <interval begin="107.00" end="108.00" id="sensor" nVehContrib="1" flow="3600.00" occupancy="16.67" speed="30.00" length="5.00" nVehEntered="1"/>
   <interval begin="108.00" end="109.00" id="sensor" nVehContrib="1" flow="3600.00" occupancy="16.67" speed="30.00" length="5.00" nVehEntered="1"/>
   <interval begin="109.00" end="110.00" id="sensor" nVehContrib="0" flow="0.00" occupancy="12.20" speed="-1.00" length="-1.00" nVehEntered="0"/>
   <interval begin="110.00" end="111.00" id="sensor" nVehContrib="1" flow="3600.00" occupancy="4.47" speed="30.00" length="5.00" nVehEntered="1"/>
   <interval begin="111.00" end="112.00" id="sensor" nVehContrib="1" flow="3600.00" occupancy="16.67" speed="30.00" length="5.00" nVehEntered="1"/>
   <interval begin="112.00" end="113.00" id="sensor" nVehContrib="1" flow="3600.00" occupancy="16.67" speed="30.00" length="5.00" nVehEntered="1"/>
   <interval begin="113.00" end="114.00" id="sensor" nVehContrib="1" flow="3600.00" occupancy="16.67" speed="30.00" length="5.00" nVehEntered="1"/>
   <interval begin="114.00" end="115.00" id="sensor" nVehContrib="1" flow="3600.00" occupancy="16.67" speed="30.00" length="5.00" nVehEntered="1"/>
   <interval begin="115.00" end="116.00" id="sensor" nVehContrib="0" flow="0.00" occupancy="12.20" speed="-1.00" length="-1.00" nVehEntered="0"/>
   <interval begin="116.00" end="117.00" id="sensor" nVehContrib="1" flow="3600.00" occupancy="4.47" speed="30.00" length="5.00" nVehEntered="1"/>
   <interval begin="117.00" end="118.00" id="sensor" nVehContrib="1" flow="3600.00" occupancy="16.67" speed="30.00" length="5.00" nVehEntered="1"/>
   <interval begin="118.00" end="119.00" id="sensor" nVehContrib="1" flow="3600.00" occupancy="16.67" speed="30.00" length="5.00" nVehEntered="1"/>
   <interval begin="119.00" end="120.00" id="sensor" nVehContrib="1" flow="3600.00" occupancy="16.67" speed="30.00" length="5.00" nVehEntered="1"/>
   <interval begin="120.00" end="121.00" id="sensor" nVehContrib="1" flow="3600.00" occupancy="16.67" speed="30.00" length="5.00" nVehEntered="1"/>
   <interval begin="121.00" end="122.00" id="sensor" nVehContrib="0" flow="0.00" occupancy="12.20" speed="-1.00" length="-1.00" nVehEntered="0"/>
   <interval begin="122.00" end="123.00" id="sensor" nVehContrib="1" flow="3600.00" occupancy="4.47" speed="30.00" length="5.00" nVehEntered="1"/>
   <interval begin="123.00" end="124.00" id="sensor" nVehContrib="1" flow="3600.00" occupancy="16.67" speed="30.00" length="5.00" nVehEntered="1"/>
   <interval begin="124.00" end="125.00" id="sensor" nVehContrib="1" flow="3600.00" occupancy="16.67" speed="30.00" length="5.00" nVehEntered="1"/>
   <interval begin="125.00" end="126.00" id="sensor" nVehContrib="1" flow="3600.00" occupancy="16.67" speed="30.00" length="5.00" nVehEntered="1"/>
   <interval begin="126.00" end="127.00" id="sensor" nVehContrib="1" flow="3600.00" occupancy="16.67" speed="30.00" length="5.00" nVehEntered="1"/>
   <interval begin="127.00" end="128.00" id="sensor" nVehContrib="0" flow="0.00" occupancy="12.20" speed="-1.00" length="-1.00" nVehEntered="0"/>
   <interval begin="128.00" end="129.00" id="sensor" nVehContrib="1" flow="3600.00" occupancy="4.47" speed="30.00" length="5.00" nVehEntered="1"/>
   <interval begin="129.00" end="130.00" id="sensor" nVehContrib="1" flow="3600.00" occupancy="16.67" speed="30.00" length="5.00" nVehEntered="1"/>
   <interval begin="130.00" end="131.00" id="sensor" nVehContrib="1" flow="3600.00" occupancy="16.67" speed="30.00" length="5.00" nVehEntered="1"/>
   <interval begin="131.00" end="132.00" id="sensor" nVehContrib="1" flow="3600.00" occupancy="16.67" speed="30.00" length="5.00" nVehEntered="1"/>
   <interval begin="132.00" end="133.00" id="sensor" nVehContrib="1" flow="3600.00" occupancy="16.67" speed="30.00" length="5.00" nVehEntered="1"/>
   <interval begin="133.00" end="134.00" id="sensor" nVehContrib="0" flow="0.00" occupancy="12.20" speed="-1.00" length="-1.00" nVehEntered="0"/>
   <interval begin="134.00" end="135.00" id="sensor" nVehContrib="1" flow="3600.00" occupancy="4.47" speed="30.00" length="5.00" nVehEntered="1"/>
   <interval begin="135.00" end="136.00" id="sensor" nVehContrib="1" flow="3600.00" occupancy="16.67" speed="30.00" length="5.00" nVehEntered="1"/>
   <interval begin="136.00" end="137.00" id="sensor" nVehContrib="1" flow="3600.00" occupancy="16.67" speed="30.00" length="5.00" nVehEntered="1"/>
   <interval begin="137.00" end="138.00" id="sensor" nVehContrib="1" flow="3600.00" occupancy="16.67" speed="30.00" length="5.00" nVehEntered="1"/>
   <interval begin="138.00" end="139.00" id="sensor" nVehContrib="1" flow="3600.00" occupancy="16.67" speed="30.00" length="5.00" nVehEntered="1"/>
   <interval begin="139.00" end="140.00" id="sensor" nVehContrib="0" flow="0.00" occupancy="12.20" speed="-1.00" length="-1.00" nVehEntered="0"/>
   <interval begin="140.00" end="141.00" id="sensor" nVehContrib="1" flow="3600.00" occupancy="4.47" speed="30.00" length="5.00" nVehEntered="1"/>
   <interval begin="141.00" end="142.00" id="sensor" nVehContrib="1" flow="3600.00" occupancy="16.67" speed="30.00" length="5.00" nVehEntered="1"/>
   <interval begin="142.00" end="143.00" id="sensor" nVehContrib="1" flow="3600.00" occupancy="16.67" speed="30.00" length="5.00" nVehEntered="1"/>
   <interval begin="143.00" end="144.00" id="sensor" nVehContrib="1" flow="3600.00" occupancy="16.67" speed="30.00" length="5.00" nVehEntered="1"/>
   <interval begin="144.00" end="145.00" id="sensor" nVehContrib="1" flow="3600.00" occupancy="16.67" speed="30.00" length="5.00" nVehEntered="1"/>
   <interval begin="145.00" end="146.00" id="sensor" nVehContrib="0" flow="0.00" occupancy="12.20" speed="-1.00" length="-1.00" nVehEntered="0"/>
   <interval begin="146.00" end="147.00" id="sensor" nVehContrib="1" flow="3600.00" occupancy="4.47" speed="30.00" length="5.00" nVehEntered="1"/>
   <interval begin="147.00" end="148.00" id="sensor" nVehContrib="1" flow="3600.00" occupancy="16.67" speed="30.00" length="5.00" nVehEntered="1"/>
   <interval begin="148.00" end="149.00" id="sensor" nVehContrib="1" flow="3600.00" occupancy="16.67" speed="30.00" length="5.00" nVehEntered="1"/>
   <interval begin="149.00" end="150.00" id="sensor" nVehContrib="1" flow="3600.00" occupancy="16.67" speed="30.00" length="5.00" nVehEntered="1"/>
   <interval begin="150.00" end="151.00" id="sensor" nVehContrib="1" flow="3600.00" occupancy="16.67" speed="30.00" length="5.00" nVehEntered="1"/>
   <interval begin="151.00" end="152.00" id="sensor" nVehContrib="0" flow="0.00" occupancy="12.20" speed="-1.00" length="-1.00" nVehEntered="0"/>
   <interval begin="152.00" end="153.00" id="sensor" nVehContrib="1" flow="3600.00" occupancy="4.47" speed="30.00" length="5.00" nVehEntered="1"/>
   <interval begin="153.00" end="154.00" id="sensor" nVehContrib="1" flow="3600.00" occupancy="16.67" speed="30.00" length="5.00" nVehEntered="1"/>
   <interval begin="154.00" end="155.00" id="sensor" nVehContrib="1" flow="3600.00" occupancy="16.67" speed="30.00" length="5.00" nVehEntered="1"/>
   <interval begin="155.00" end="156.00" id="sensor" nVehContrib="1" flow="3600.00" occupancy="16.67" speed="30.00" length="5.00" nVehEntered="1"/>
   <interval begin="156.00" end="157.00" id="sensor" nVehContrib="1" flow="3600.00" occupancy="16.67" speed="30.00" length="5.00" nVehEntered="1"/>
   <interval begin="157.00" end="158.00" id="sensor" nVehContrib="0" flow="0.00" occupancy="12.20" speed="-1.00" length="-1.00" nVehEntered="0"/>
   <interval begin="158.00" end="159.00" id="sensor" nVehContrib="1" flow="3600.00" occupancy="4.47" speed="30.00" length="5.00" nVehEntered="1"/>
   <interval begin="159.00" end="160.00" id="sensor" nVehContrib="1" flow="3600.00" occupancy="16.67" speed="30.00" length="5.00" nVehEntered="1"/>
   <interval begin="160.00" end="161.00" id="sensor" nVehContrib="1" flow="3600.00" occupancy="16.67" speed="30.00" length="5.00" nVehEntered="1"/>
   <interval begin="161.00" end="162.00" id="sensor" nVehContrib="1" flow="3600.00" occupancy="16.67" speed="30.00" length="5.00" nVehEntered="1"/>
   <interval begin="162.00" end="163.00" id="sensor" nVehContrib="1" flow="3600.00" occupancy="16.67" speed="30.00" length="5.00" nVehEntered="1"/>
   <interval begin="163.00" end="164.00" id="sensor" nVehContrib="0" flow="0.00" occupancy="12.20" speed="-1.00" length="-1.00" nVehEntered="0"/>
   <interval begin="164.00" end="165.00" id="sensor" nVehContrib="1" flow="3600.00" occupancy="4.47" speed="30.00" length="5.00" nVehEntered="1"/>
   <interval begin="165.00" end="166.00" id="sensor" nVehContrib="1" flow="3600.00" occupancy="16.67" speed="30.00" length="5.00" nVehEntered="1"/>
   <interval begin="166.00" end="167.00" id="sensor" nVehContrib="1" flow="3600.00" occupancy="16.67" speed="30.00" length="5.00" nVehEntered="1"/>
   <interval begin="167.00" end="168.00" id="sensor" nVehContrib="1" flow="3600.00" occupancy="16.67" speed="30.00" length="5.00" nVehEntered="1"/>
   <interval begin="168.00" end="169.00" id="sensor" nVehContrib="1" flow="3600.00" occupancy="16.67" speed="30.00" length="5.00" nVehEntered="1"/>
   <interval begin="169.00" end="170.00" id="sensor" nVehContrib="0" flow="0.00" occupancy="12.20" speed="-1.00" length="-1.00" nVehEntered="0"/>
   <interval begin="170.00" end="171.00" id="sensor" nVehContrib="1" flow="3600.00" occupancy="4.47" speed="30.00" length="5.00" nVehEntered="1"/>
   <interval begin="171.00" end="172.00" id="sensor" nVehContrib="1" flow="3600.00" occupancy="16.67" speed="30.00" length="5.00" nVehEntered="1"/>
   <interval begin="172.00" end="173.00" id="sensor" nVehContrib="1" flow="3600.00" occupancy="16.67" speed="30.00" length="5.00" nVehEntered="1"/>
   <interval begin="173.00" end="174.00" id="sensor" nVehContrib="1" flow="3600.00" occupancy="16.67" speed="30.00" length="5.00" nVehEntered="1"/>
   <interval begin="174.00" end="175.00" id="sensor" nVehContrib="1" flow="3600.00" occupancy="16.67" speed="30.00" length="5.00" nVehEntered="1"/>
   <interval begin="175.00" end="176.00" id="sensor" nVehContrib="0" flow="0.00" occupancy="12.20" speed="-1.00" length="-1.00" nVehEntered="0"/>
   <interval begin="176.00" end="177.00" id="sensor" nVehContrib="1" flow="3600.00" occupancy="4.47" speed="30.00" length="5.00" nVehEntered="1"/>
   <interval begin="177.00" end="178.00" id="sensor" nVehContrib="1" flow="3600.00" occupancy="16.67" speed="30.00" length="5.00" nVehEntered="1"/>
   <interval begin="178.00" end="179.00" id="sensor" nVehContrib="1" flow="3600.00" occupancy="16.67" speed="30.00" length="5.00" nVehEntered="1"/>
   <interval begin="179.00" end="180.00" id="sensor" nVehContrib="1" flow="3600.00" occupancy="16.67" speed="30.00" length="5.00" nVehEntered="1"/>
   <interval begin="180.00" end="181.00" id="sensor" nVehContrib="1" flow="3600.00" occupancy="16.67" speed="30.00" length="5.00" nVehEntered="1"/>
   <interval begin="181.00" end="182.00" id="sensor" nVehContrib="0" flow="0.00" occupancy="12.20" speed="-1.00" length="-1.00" nVehEntered="0"/>
   <interval begin="182.00" end="183.00" id="sensor" nVehContrib="1" flow="3600.00" occupancy="4.47" speed="30.00" length="5.00" nVehEntered="1"/>
   <interval begin="183.00" end="184.00" id="sensor" nVehContrib="1" flow="3600.00" occupancy="16.67" speed="30.00" length="5.00" nVehEntered="1"/>
   <interval begin="184.00" end="185.00" id="sensor" nVehContrib="1" flow="3600.00" occupancy="16.67" speed="30.00" length="5.00" nVehEntered="1"/>
   <interval begin="185.00" end="186.00" id="sensor" nVehContrib="1" flow="3600.00" occupancy="16.67" speed="30.00" length="5.00" nVehEntered="1"/>
   <interval begin="186.00" end="187.00" id="sensor" nVehContrib="1" flow="3600.00" occupancy="16.67" speed="30.00" length="5.00" nVehEntered="1"/>
   <interval begin="187.00" end="188.00" id="sensor" nVehContrib="0" flow="0.00" occupancy="12.20" speed="-1.00" length="-1.00" nVehEntered="0"/>
   <interval begin="188.00" end="189.00" id="sensor" nVehContrib="1" flow="3600.00" occupancy="4.47" speed="30.00" length="5.00" nVehEntered="1"/>
   <interval begin="189.00" end="190.00" id="sensor" nVehContrib="1" flow="3600.00" occupancy="16.67" speed="30.00" length="5.00" nVehEntered="1"/>
   <interval begin="190.00" end="191.00" id="sensor" nVehContrib="1" flow="3600.00" occupancy="16.67" speed="30.00" length="5.00" nVehEntered="1"/>
   <interval begin="191.00" end="192.00" id="sensor" nVehContrib="1" flow="3600.00" occupancy="16.67" speed="30.00" length="5.00" nVehEntered="1"/>
   <interval begin="192.00" end="193.00" id="sensor" nVehContrib="1" flow="3600.00" occupancy="16.67" speed="30.00" length="5.00" nVehEntered="1"/>
   <interval begin="193.00" end="194.00" id="sensor" nVehContrib="0" flow="0.00" occupancy="12.20" speed="-1.00" length="-1.00" nVehEntered="0"/>
   <interval begin="194.00" end="195.00" id="sensor" nVehContrib="1" flow="3600.00" occupancy="4.47" speed="30.00" length="5.00" nVehEntered="1"/>
   <interval begin="195.00" end="196.00" id="sensor" nVehContrib="1" flow="3600.00" occupancy="16.67" speed="30.00" length="5.00" nVehEntered="1"/>